<?xml version="1.0" encoding="ISO-8859-1"?>
<modeling>
 <generator>
  <i name="program" type="string">vasp </i>
  <i name="version" type="string">6.1.0  </i>
  <i name="subversion" type="string">28Jan20 (build Apr 18 2021 22:27:03) complex                          parallel </i>
  <i name="platform" type="string">LinuxIFC </i>
  <i name="date" type="string">2023 08 12 </i>
  <i name="time" type="string">00:28:09 </i>
 </generator>
 <incar>
  <i type="int" name="ISTART">     1</i>
  <i type="string" name="PREC">  Normal       (Precision level)</i>
  <i type="logical" name="ADDGRID"> T  </i>
  <i type="int" name="NELM">    60</i>
  <i name="EDIFF">      0.00000001</i>
  <i name="ENCUT">    450.00000000</i>
  <i type="int" name="NEDOS">  2001</i>
  <i type="logical" name="LREAL"> F  </i>
  <i type="int" name="ISMEAR">     0</i>
  <i name="SIGMA">      0.05000000</i>
  <i type="logical" name="LWAVE"> T  </i>
  <i type="logical" name="LCHARG"> T  </i>
  <i type="logical" name="LVHAR"> T  </i>
  <i type="int" name="KPAR">     4</i>
  <i type="int" name="NELM">    60</i>
  <i name="EDIFF">      0.00000001</i>
 </incar>
 <structure name="primitive_cell" >
  <crystal>
   <varray name="basis" >
    <v>       2.55590768       0.00000000       0.00000000 </v>
    <v>      -1.27795384       2.21348098       0.00000000 </v>
    <v>       0.00000000       0.00000000      30.00000000 </v>
   </varray>
   <i name="volume">    169.72359134 </i>
   <varray name="rec_basis" >
    <v>       0.39125044       0.22588855       0.00000000 </v>
    <v>       0.00000000       0.45177709       0.00000000 </v>
    <v>       0.00000000       0.00000000       0.03333333 </v>
   </varray>
  </crystal>
  <varray name="positions" >
   <v>       0.33333332       0.66666664       0.45731859 </v>
   <v>       0.66666660       0.33333329       0.54268145 </v>
   <v>       0.00000000       0.00000000       0.52589813 </v>
   <v>       0.00000000       0.00000000       0.47410187 </v>
   <v>       0.33333332       0.66666664       0.41137542 </v>
   <v>       0.66666660       0.33333329       0.58862458 </v>
  </varray>
 </structure>
 <varray name="primitive_index" >
  <v type="int" >        1 </v>
  <v type="int" >        2 </v>
  <v type="int" >        3 </v>
  <v type="int" >        4 </v>
  <v type="int" >        5 </v>
  <v type="int" >        6 </v>
 </varray>
 <kpoints>
  <generation param="Gamma">
   <v type="int" name="divisions">      24       24        1 </v>
   <v name="usershift">      0.00000000       0.00000000       0.00000000 </v>
   <v name="genvec1">      0.04166667      -0.00000000       0.00000000 </v>
   <v name="genvec2">      0.00000000       0.04166667       0.00000000 </v>
   <v name="genvec3">      0.00000000       0.00000000       1.00000000 </v>
   <v name="shift">      0.00000000       0.00000000       0.00000000 </v>
  </generation>
  <varray name="kpointlist" >
   <v>       0.00000000       0.00000000       0.00000000 </v>
   <v>       0.04166667       0.00000000       0.00000000 </v>
   <v>       0.08333333      -0.00000000       0.00000000 </v>
   <v>       0.12500000       0.00000000       0.00000000 </v>
   <v>       0.16666667       0.00000000       0.00000000 </v>
   <v>       0.20833333       0.00000000       0.00000000 </v>
   <v>       0.25000000       0.00000000       0.00000000 </v>
   <v>       0.29166667       0.00000000       0.00000000 </v>
   <v>       0.33333333      -0.00000000       0.00000000 </v>
   <v>       0.37500000       0.00000000       0.00000000 </v>
   <v>       0.41666667      -0.00000000       0.00000000 </v>
   <v>       0.45833333       0.00000000       0.00000000 </v>
   <v>       0.50000000       0.00000000       0.00000000 </v>
   <v>       0.04166667       0.04166667       0.00000000 </v>
   <v>       0.08333333       0.04166667       0.00000000 </v>
   <v>       0.12500000       0.04166667       0.00000000 </v>
   <v>       0.16666667       0.04166667       0.00000000 </v>
   <v>       0.20833333       0.04166667       0.00000000 </v>
   <v>       0.25000000       0.04166667       0.00000000 </v>
   <v>       0.29166667       0.04166667       0.00000000 </v>
   <v>       0.33333333       0.04166667       0.00000000 </v>
   <v>       0.37500000       0.04166667       0.00000000 </v>
   <v>       0.41666667       0.04166667       0.00000000 </v>
   <v>       0.45833333       0.04166667       0.00000000 </v>
   <v>       0.08333333       0.08333333       0.00000000 </v>
   <v>       0.12500000       0.08333333       0.00000000 </v>
   <v>       0.16666667       0.08333333       0.00000000 </v>
   <v>       0.20833333       0.08333333       0.00000000 </v>
   <v>       0.25000000       0.08333333       0.00000000 </v>
   <v>       0.29166667       0.08333333       0.00000000 </v>
   <v>       0.33333333       0.08333333       0.00000000 </v>
   <v>       0.37500000       0.08333333       0.00000000 </v>
   <v>       0.41666667       0.08333333       0.00000000 </v>
   <v>       0.45833333       0.08333333       0.00000000 </v>
   <v>       0.12500000       0.12500000       0.00000000 </v>
   <v>       0.16666667       0.12500000       0.00000000 </v>
   <v>       0.20833333       0.12500000       0.00000000 </v>
   <v>       0.25000000       0.12500000       0.00000000 </v>
   <v>       0.29166667       0.12500000       0.00000000 </v>
   <v>       0.33333333       0.12500000       0.00000000 </v>
   <v>       0.37500000       0.12500000       0.00000000 </v>
   <v>       0.41666667       0.12500000       0.00000000 </v>
   <v>       0.16666667       0.16666667       0.00000000 </v>
   <v>       0.20833333       0.16666667       0.00000000 </v>
   <v>       0.25000000       0.16666667       0.00000000 </v>
   <v>       0.29166667       0.16666667       0.00000000 </v>
   <v>       0.33333333       0.16666667       0.00000000 </v>
   <v>       0.37500000       0.16666667       0.00000000 </v>
   <v>       0.41666667       0.16666667       0.00000000 </v>
   <v>       0.20833333       0.20833333       0.00000000 </v>
   <v>       0.25000000       0.20833333       0.00000000 </v>
   <v>       0.29166667       0.20833333       0.00000000 </v>
   <v>       0.33333333       0.20833333       0.00000000 </v>
   <v>       0.37500000       0.20833333       0.00000000 </v>
   <v>       0.25000000       0.25000000       0.00000000 </v>
   <v>       0.29166667       0.25000000       0.00000000 </v>
   <v>       0.33333333       0.25000000       0.00000000 </v>
   <v>       0.37500000       0.25000000       0.00000000 </v>
   <v>       0.29166667       0.29166667       0.00000000 </v>
   <v>       0.33333333       0.29166667       0.00000000 </v>
   <v>       0.33333333       0.33333333       0.00000000 </v>
  </varray>
  <varray name="weights" >
   <v>       0.00173611 </v>
   <v>       0.01041667 </v>
   <v>       0.01041667 </v>
   <v>       0.01041667 </v>
   <v>       0.01041667 </v>
   <v>       0.01041667 </v>
   <v>       0.01041667 </v>
   <v>       0.01041667 </v>
   <v>       0.01041667 </v>
   <v>       0.01041667 </v>
   <v>       0.01041667 </v>
   <v>       0.01041667 </v>
   <v>       0.00520833 </v>
   <v>       0.01041667 </v>
   <v>       0.02083333 </v>
   <v>       0.02083333 </v>
   <v>       0.02083333 </v>
   <v>       0.02083333 </v>
   <v>       0.02083333 </v>
   <v>       0.02083333 </v>
   <v>       0.02083333 </v>
   <v>       0.02083333 </v>
   <v>       0.02083333 </v>
   <v>       0.02083333 </v>
   <v>       0.01041667 </v>
   <v>       0.02083333 </v>
   <v>       0.02083333 </v>
   <v>       0.02083333 </v>
   <v>       0.02083333 </v>
   <v>       0.02083333 </v>
   <v>       0.02083333 </v>
   <v>       0.02083333 </v>
   <v>       0.02083333 </v>
   <v>       0.01041667 </v>
   <v>       0.01041667 </v>
   <v>       0.02083333 </v>
   <v>       0.02083333 </v>
   <v>       0.02083333 </v>
   <v>       0.02083333 </v>
   <v>       0.02083333 </v>
   <v>       0.02083333 </v>
   <v>       0.02083333 </v>
   <v>       0.01041667 </v>
   <v>       0.02083333 </v>
   <v>       0.02083333 </v>
   <v>       0.02083333 </v>
   <v>       0.02083333 </v>
   <v>       0.02083333 </v>
   <v>       0.01041667 </v>
   <v>       0.01041667 </v>
   <v>       0.02083333 </v>
   <v>       0.02083333 </v>
   <v>       0.02083333 </v>
   <v>       0.02083333 </v>
   <v>       0.01041667 </v>
   <v>       0.02083333 </v>
   <v>       0.02083333 </v>
   <v>       0.01041667 </v>
   <v>       0.01041667 </v>
   <v>       0.02083333 </v>
   <v>       0.00347222 </v>
  </varray>
 </kpoints>
 <parameters>
  <separator name="general" >
   <i type="string" name="SYSTEM">unknown system</i>
   <i type="logical" name="LCOMPAT"> F  </i>
  </separator>
  <separator name="electronic" >
   <i type="string" name="PREC">normal</i>
   <i name="ENMAX">    450.00000000</i>
   <i name="ENAUG">    644.87300000</i>
   <i name="EDIFF">      0.00000001</i>
   <i type="int" name="IALGO">    38</i>
   <i type="int" name="IWAVPR">    10</i>
   <i type="int" name="NBANDS">    32</i>
   <i type="int" name="NBANDSLOW">    -1</i>
   <i type="int" name="NBANDSHIGH">    -1</i>
   <i name="NELECT">     30.00000000</i>
   <i type="int" name="TURBO">     0</i>
   <i type="int" name="IRESTART">     0</i>
   <i type="int" name="NREBOOT">     0</i>
   <i type="int" name="NMIN">     0</i>
   <i name="EREF">      0.00000000</i>
   <separator name="electronic smearing" >
    <i type="int" name="ISMEAR">     0</i>
    <i name="SIGMA">      0.05000000</i>
    <i name="KSPACING">      0.50000000</i>
    <i type="logical" name="KGAMMA"> T  </i>
    <i type="logical" name="KBLOWUP"> T  </i>
   </separator>
   <separator name="electronic projectors" >
    <i type="logical" name="LREAL"> F  </i>
    <v name="ROPT">      0.00000000      0.00000000</v>
    <i type="int" name="LMAXPAW">  -100</i>
    <i type="int" name="LMAXMIX">     2</i>
    <i type="logical" name="NLSPLINE"> F  </i>
   </separator>
   <separator name="electronic startup" >
    <i type="int" name="ISTART">     1</i>
    <i type="int" name="ICHARG">     0</i>
    <i type="int" name="INIWAV">     1</i>
   </separator>
   <separator name="electronic spin" >
    <i type="int" name="ISPIN">     1</i>
    <i type="logical" name="LNONCOLLINEAR"> F  </i>
    <v name="MAGMOM">      1.00000000      1.00000000      1.00000000      1.00000000      1.00000000      1.00000000</v>
    <i name="NUPDOWN">     -1.00000000</i>
    <i type="logical" name="LSORBIT"> F  </i>
    <v name="SAXIS">      0.00000000      0.00000000      1.00000000</v>
    <i type="logical" name="LSPIRAL"> F  </i>
    <v name="QSPIRAL">      0.00000000      0.00000000      0.00000000</v>
    <i type="logical" name="LZEROZ"> F  </i>
   </separator>
   <separator name="electronic exchange-correlation" >
    <i type="logical" name="LASPH"> F  </i>
    <i type="logical" name="LMETAGGA"> F  </i>
   </separator>
   <separator name="electronic convergence" >
    <i type="int" name="NELM">    60</i>
    <i type="int" name="NELMDL">     0</i>
    <i type="int" name="NELMIN">     2</i>
    <i name="ENINI">    450.00000000</i>
    <separator name="electronic convergence detail" >
     <i type="logical" name="LDIAG"> T  </i>
     <i type="logical" name="LSUBROT"> F  </i>
     <i name="WEIMIN">      0.00000000</i>
     <i name="EBREAK">      0.00000000</i>
     <i name="DEPER">      0.30000000</i>
     <i type="int" name="NRMM">     4</i>
     <i name="TIME">      0.40000000</i>
    </separator>
   </separator>
   <separator name="electronic mixer" >
    <i name="AMIX">      0.40000000</i>
    <i name="BMIX">      1.00000000</i>
    <i name="AMIN">      0.10000000</i>
    <i name="AMIX_MAG">      1.60000000</i>
    <i name="BMIX_MAG">      1.00000000</i>
    <separator name="electronic mixer details" >
     <i type="int" name="IMIX">     4</i>
     <i type="logical" name="MIXFIRST"> F  </i>
     <i type="int" name="MAXMIX">   -45</i>
     <i name="WC">    100.00000000</i>
     <i type="int" name="INIMIX">     1</i>
     <i type="int" name="MIXPRE">     1</i>
     <i type="int" name="MREMOVE">     5</i>
    </separator>
   </separator>
   <separator name="electronic dipolcorrection" >
    <i type="logical" name="LDIPOL"> F  </i>
    <i type="logical" name="LMONO"> F  </i>
    <i type="int" name="IDIPOL">     0</i>
    <i name="EPSILON">      1.00000000</i>
    <v name="DIPOL">   -100.00000000   -100.00000000   -100.00000000</v>
    <i name="EFIELD">      0.00000000</i>
   </separator>
  </separator>
  <separator name="grids" >
   <i type="int" name="NGX">    14</i>
   <i type="int" name="NGY">    14</i>
   <i type="int" name="NGZ">   160</i>
   <i type="int" name="NGXF">    28</i>
   <i type="int" name="NGYF">    28</i>
   <i type="int" name="NGZF">   320</i>
   <i type="logical" name="ADDGRID"> T  </i>
  </separator>
  <separator name="ionic" >
   <i type="int" name="NSW">     0</i>
   <i type="int" name="IBRION">    -1</i>
   <i type="int" name="MDALGO">     0</i>
   <i type="int" name="ISIF">     2</i>
   <i name="PSTRESS">      0.00000000</i>
   <i name="EDIFFG">      0.00000010</i>
   <i type="int" name="NFREE">     0</i>
   <i name="POTIM">      0.50000000</i>
   <i name="SMASS">     -3.00000000</i>
   <i name="SCALEE">      1.00000000</i>
  </separator>
  <separator name="ionic md" >
   <i name="TEBEG">      0.00010000</i>
   <i name="TEEND">      0.00010000</i>
   <i type="int" name="NBLOCK">     1</i>
   <i type="int" name="KBLOCK">     1</i>
   <i type="int" name="NPACO">   256</i>
   <i name="APACO">     16.00000000</i>
  </separator>
  <separator name="symmetry" >
   <i type="int" name="ISYM">     2</i>
   <i name="SYMPREC">      0.00001000</i>
  </separator>
  <separator name="dos" >
   <i type="int" name="LORBIT">    11</i>
   <v name="RWIGS">     -1.00000000     -1.00000000</v>
   <i type="int" name="NEDOS">  2001</i>
   <i name="EMIN">     10.00000000</i>
   <i name="EMAX">    -10.00000000</i>
   <i name="EFERMI">      0.00000000</i>
  </separator>
  <separator name="writing" >
   <i type="int" name="NWRITE">     2</i>
   <i type="logical" name="LWAVE"> T  </i>
   <i type="logical" name="LDOWNSAMPLE"> F  </i>
   <i type="logical" name="LCHARG"> T  </i>
   <i type="logical" name="LPARD"> F  </i>
   <i type="logical" name="LVTOT"> F  </i>
   <i type="logical" name="LVHAR"> T  </i>
   <i type="logical" name="LELF"> F  </i>
   <i type="logical" name="LOPTICS"> F  </i>
   <v name="STM">      0.00000000      0.00000000      0.00000000      0.00000000      0.00000000      0.00000000      0.00000000</v>
  </separator>
  <separator name="performance" >
   <i type="int" name="NPAR">    16</i>
   <i type="int" name="NSIM">     4</i>
   <i type="int" name="NBLK">    -1</i>
   <i type="logical" name="LPLANE"> T  </i>
   <i type="logical" name="LSCALAPACK"> T  </i>
   <i type="logical" name="LSCAAWARE"> F  </i>
   <i type="logical" name="LSCALU"> F  </i>
   <i type="logical" name="LASYNC"> F  </i>
   <i type="logical" name="LORBITALREAL"> F  </i>
  </separator>
  <separator name="miscellaneous" >
   <i type="int" name="IDIOT">     3</i>
   <i type="int" name="PHON_NSTRUCT">    -1</i>
   <i type="logical" name="LMUSIC"> F  </i>
   <v name="POMASS">     12.01100000     18.99800000</v>
   <v name="DARWINR">      0.00000000      0.00000000</v>
   <v name="DARWINV">      1.00000000      1.00000000</v>
   <i type="logical" name="LCORR"> T  </i>
  </separator>
  <i type="logical" name="GGA_COMPAT"> T  </i>
  <i type="logical" name="LBERRY"> F  </i>
  <i type="int" name="ICORELEVEL">     0</i>
  <i type="logical" name="LDAU"> F  </i>
  <i type="int" name="I_CONSTRAINED_M">     0</i>
  <separator name="electronic exchange-correlation" >
   <i type="string" name="GGA">--</i>
   <i type="int" name="VOSKOWN">     0</i>
   <i type="logical" name="LHFCALC"> F  </i>
   <i type="string" name="PRECFOCK"></i>
   <i type="logical" name="LSYMGRAD"> F  </i>
   <i type="logical" name="LHFONE"> F  </i>
   <i type="logical" name="LRHFCALC"> F  </i>
   <i type="logical" name="LTHOMAS"> F  </i>
   <i type="logical" name="LMODELHF"> F  </i>
   <i type="logical" name="LFOCKACE"> F  </i>
   <i name="ENCUT4O">     -1.00000000</i>
   <i type="int" name="EXXOEP">     0</i>
   <i type="int" name="FOURORBIT">     0</i>
   <i name="AEXX">      0.00000000</i>
   <i name="HFALPHA">      0.00000000</i>
   <i name="MCALPHA">      0.00000000</i>
   <i name="ALDAX">      1.00000000</i>
   <i name="AGGAX">      1.00000000</i>
   <i name="ALDAC">      1.00000000</i>
   <i name="AGGAC">      1.00000000</i>
   <i type="int" name="NKREDX">     1</i>
   <i type="int" name="NKREDY">     1</i>
   <i type="int" name="NKREDZ">     1</i>
   <i type="logical" name="SHIFTRED"> F  </i>
   <i type="logical" name="ODDONLY"> F  </i>
   <i type="logical" name="EVENONLY"> F  </i>
   <i type="int" name="LMAXFOCK">     0</i>
   <i type="int" name="NMAXFOCKAE">     0</i>
   <i type="logical" name="LFOCKAEDFT"> F  </i>
   <i name="HFSCREEN">      0.00000000</i>
   <i name="HFSCREENC">      0.00000000</i>
   <i type="int" name="NBANDSGWLOW">     0</i>
  </separator>
  <separator name="vdW DFT" >
   <i type="logical" name="LUSE_VDW"> F  </i>
   <i name="Zab_VDW">     -0.84910000</i>
   <i name="PARAM1">      0.12340000</i>
   <i name="PARAM2">      1.00000000</i>
   <i name="PARAM3">      0.00000000</i>
  </separator>
  <separator name="model GW" >
   <i type="int" name="MODEL_GW">     0</i>
   <i name="MODEL_EPS0">     16.97235913</i>
   <i name="MODEL_ALPHA">      1.00000000</i>
  </separator>
  <separator name="linear response parameters" >
   <i type="logical" name="LEPSILON"> F  </i>
   <i type="logical" name="LRPA"> F  </i>
   <i type="logical" name="LNABLA"> F  </i>
   <i type="logical" name="LVEL"> F  </i>
   <i type="int" name="KINTER">     0</i>
   <i name="CSHIFT">      0.10000000</i>
   <i name="OMEGAMAX">     -1.00000000</i>
   <i name="DEG_THRESHOLD">      0.00200000</i>
   <i name="RTIME">     -0.10000000</i>
   <i name="WPLASMAI">      0.00000000</i>
   <v name="DFIELD">      0.00000000      0.00000000      0.00000000</v>
   <v name="WPLASMA">      0.00000000      0.00000000      0.00000000      0.00000000      0.00000000      0.00000000      0.00000000      0.00000000      0.00000000</v>
  </separator>
  <separator name="orbital magnetization" >
   <i type="logical" name="NUCIND"> F  </i>
   <v name="MAGPOS">      0.00000000      0.00000000      0.00000000</v>
   <i type="logical" name="LNICSALL"> T  </i>
   <i type="logical" name="ORBITALMAG"> F  </i>
   <i type="logical" name="LMAGBLOCH"> F  </i>
   <i type="logical" name="LCHIMAG"> F  </i>
   <i type="logical" name="LGAUGE"> T  </i>
   <i type="int" name="MAGATOM">     0</i>
   <v name="MAGDIPOL">      0.00000000      0.00000000      0.00000000</v>
   <v name="AVECCONST">      0.00000000      0.00000000      0.00000000</v>
  </separator>
  <separator name="response functions" >
   <i type="logical" name="LFINITE_TEMPERATURE"> F  </i>
   <i type="logical" name="LADDER"> F  </i>
   <i type="logical" name="LRPAFORCE"> F  </i>
   <i type="logical" name="LFXC"> F  </i>
   <i type="logical" name="LHARTREE"> T  </i>
   <i type="int" name="IBSE">     0</i>
   <v type="int" name="KPOINT">    -1     0     0     0</v>
   <i type="logical" name="LTCTC"> F  </i>
   <i type="logical" name="LTCTE"> F  </i>
   <i type="logical" name="LTETE"> F  </i>
   <i type="logical" name="LTRIPLET"> F  </i>
   <i type="logical" name="LFXCEPS"> F  </i>
   <i type="logical" name="LFXHEG"> F  </i>
   <i type="int" name="NATURALO">     2</i>
   <i type="logical" name="LHOLEGF"> F  </i>
   <i type="logical" name="L2ORDER"> F  </i>
   <i type="logical" name="LDMP1"> F  </i>
   <i type="logical" name="LMP2LT"> F  </i>
   <i type="logical" name="LSMP2LT"> F  </i>
   <i type="logical" name="LGWLF"> F  </i>
   <i name="ENCUTGW">     -2.00000000</i>
   <i name="ENCUTGWSOFT">     -2.00000000</i>
   <i name="ENCUTLF">     -1.00000000</i>
   <i type="logical" name="LESF_SPLINES"> F  </i>
   <i type="int" name="LMAXMP2">    -1</i>
   <i name="SCISSOR">      0.00000000</i>
   <i type="int" name="NOMEGA">     0</i>
   <i type="int" name="NOMEGAR">     0</i>
   <i type="int" name="NBANDSGW">    -1</i>
   <i type="int" name="NBANDSO">    -1</i>
   <i type="int" name="NBANDSV">    -1</i>
   <i type="int" name="NELM">    60</i>
   <i type="int" name="NELMHF">     1</i>
   <i type="int" name="DIM">     3</i>
   <i type="int" name="IESPILON">     4</i>
   <i type="int" name="ANTIRES">     0</i>
   <i name="OMEGAMAX">    -30.00000000</i>
   <i name="OMEGAMIN">    -30.00000000</i>
   <i name="OMEGATL">   -200.00000000</i>
   <i type="int" name="OMEGAGRID">     0</i>
   <i name="CSHIFT">     -0.10000000</i>
   <i type="logical" name="LSELFENERGY"> F  </i>
   <i type="logical" name="LSPECTRAL"> F  </i>
   <i type="logical" name="LSPECTRALGW"> F  </i>
   <i type="logical" name="LSINGLES"> F  </i>
   <i type="logical" name="LFERMIGW"> F  </i>
   <i type="logical" name="ODDONLYGW"> F  </i>
   <i type="logical" name="EVENONLYGW"> F  </i>
   <i type="int" name="NKREDLFX">     1</i>
   <i type="int" name="NKREDLFY">     1</i>
   <i type="int" name="NKREDLFZ">     1</i>
   <i type="int" name="MAXMEM">  2800</i>
   <i type="int" name="TELESCOPE">     0</i>
   <i type="int" name="NTAUPAR">    -1</i>
   <i type="int" name="NOMEGAPAR">    -1</i>
   <i name="LAMBDA">      1.00000000</i>
  </separator>
  <separator name="External order field" >
   <i name="OFIELD_KAPPA">      0.00000000</i>
   <v name="OFIELD_K">      0.00000000      0.00000000      0.00000000</v>
   <i name="OFIELD_Q6_NEAR">      0.00000000</i>
   <i name="OFIELD_Q6_FAR">      0.00000000</i>
   <i name="OFIELD_A">      0.00000000</i>
  </separator>
 </parameters>
 <atominfo>
  <atoms>       6 </atoms>
  <types>       2 </types>
  <array name="atoms" >
   <dimension dim="1">ion</dimension>
   <field type="string">element</field>
   <field type="int">atomtype</field>
   <set>
    <rc><c>C </c><c>   1</c></rc>
    <rc><c>C </c><c>   1</c></rc>
    <rc><c>C </c><c>   1</c></rc>
    <rc><c>C </c><c>   1</c></rc>
    <rc><c>F </c><c>   2</c></rc>
    <rc><c>F </c><c>   2</c></rc>
   </set>
  </array>
  <array name="atomtypes" >
   <dimension dim="1">type</dimension>
   <field type="int">atomspertype</field>
   <field type="string">element</field>
   <field>mass</field>
   <field>valence</field>
   <field type="string">pseudopotential</field>
   <set>
    <rc><c>   4</c><c>C </c><c>     12.01100000</c><c>      4.00000000</c><c>  PAW_PBE C 08Apr2002                   </c></rc>
    <rc><c>   2</c><c>F </c><c>     18.99800000</c><c>      7.00000000</c><c>  PAW_PBE F 08Apr2002                   </c></rc>
   </set>
  </array>
 </atominfo>
 <structure name="initialpos" >
  <crystal>
   <varray name="basis" >
    <v>       2.55590768       0.00000000       0.00000000 </v>
    <v>      -1.27795384       2.21348098       0.00000000 </v>
    <v>       0.00000000       0.00000000      30.00000000 </v>
   </varray>
   <i name="volume">    169.72359134 </i>
   <varray name="rec_basis" >
    <v>       0.39125044       0.22588855       0.00000000 </v>
    <v>       0.00000000       0.45177709       0.00000000 </v>
    <v>       0.00000000       0.00000000       0.03333333 </v>
   </varray>
  </crystal>
  <varray name="positions" >
   <v>       0.33333332       0.66666664       0.45731859 </v>
   <v>       0.66666660       0.33333329       0.54268145 </v>
   <v>       0.00000000       0.00000000       0.52589813 </v>
   <v>       0.00000000       0.00000000       0.47410187 </v>
   <v>       0.33333332       0.66666664       0.41137542 </v>
   <v>       0.66666660       0.33333329       0.58862458 </v>
  </varray>
 </structure>
 <calculation>
  <scstep>
   <time name="dav">    0.56    0.56</time>
   <time name="total">    0.62    0.62</time>
   <energy>
    <i name="alphaZ">     23.38987508 </i>
    <i name="ewald">  19818.39214204 </i>
    <i name="hartreedc"> -21486.14927588 </i>
    <i name="XCdc">    131.38577344 </i>
    <i name="pawpsdc">   2735.68150970 </i>
    <i name="pawaedc">  -2748.67128622 </i>
    <i name="eentropy">     -0.00000000 </i>
    <i name="bandstr">   -425.21432477 </i>
    <i name="atom">   1907.74159861 </i>
    <i name="e_fr_energy">    -43.44398800 </i>
    <i name="e_wo_entrp">    -43.44398800 </i>
    <i name="e_0_energy">    -43.44398800 </i>
   </energy>
  </scstep>
  <scstep>
   <time name="dav">    0.58    0.59</time>
   <time name="total">    0.61    0.61</time>
   <energy>
    <i name="alphaZ">     23.38987508 </i>
    <i name="ewald">  19818.39214204 </i>
    <i name="hartreedc"> -21486.14929607 </i>
    <i name="XCdc">    131.38577284 </i>
    <i name="pawpsdc">   2735.68152002 </i>
    <i name="pawaedc">  -2748.67129591 </i>
    <i name="eentropy">     -0.00000000 </i>
    <i name="bandstr">   -425.21430461 </i>
    <i name="atom">   1907.74159861 </i>
    <i name="e_fr_energy">    -43.44398800 </i>
    <i name="e_wo_entrp">    -43.44398800 </i>
    <i name="e_0_energy">    -43.44398800 </i>
   </energy>
  </scstep>
  <structure>
   <crystal>
    <varray name="basis" >
     <v>       2.55590768       0.00000000       0.00000000 </v>
     <v>      -1.27795384       2.21348098       0.00000000 </v>
     <v>       0.00000000       0.00000000      30.00000000 </v>
    </varray>
    <i name="volume">    169.72359134 </i>
    <varray name="rec_basis" >
     <v>       0.39125044       0.22588855       0.00000000 </v>
     <v>       0.00000000       0.45177709       0.00000000 </v>
     <v>       0.00000000       0.00000000       0.03333333 </v>
    </varray>
   </crystal>
   <varray name="positions" >
    <v>       0.33333332       0.66666664       0.45731859 </v>
    <v>       0.66666660       0.33333329       0.54268145 </v>
    <v>       0.00000000       0.00000000       0.52589813 </v>
    <v>       0.00000000       0.00000000       0.47410187 </v>
    <v>       0.33333332       0.66666664       0.41137542 </v>
    <v>       0.66666660       0.33333329       0.58862458 </v>
   </varray>
  </structure>
  <varray name="forces" >
   <v>      -0.00000000       0.00000000      -0.00455811 </v>
   <v>      -0.00000000      -0.00000000       0.00455811 </v>
   <v>       0.00000000      -0.00000000       0.00382909 </v>
   <v>       0.00000000       0.00000000      -0.00382909 </v>
   <v>      -0.00000000       0.00000000      -0.00168626 </v>
   <v>       0.00000000      -0.00000000       0.00168626 </v>
  </varray>
  <varray name="stress" >
   <v>      -0.60303921      -0.00000000       0.00000000 </v>
   <v>      -0.00000000      -0.60303921      -0.00000000 </v>
   <v>       0.00000000      -0.00000000      -5.95745001 </v>
  </varray>
  <energy>
   <i name="e_fr_energy">    -43.44398800 </i>
   <i name="e_wo_entrp">    -43.44398800 </i>
   <i name="e_0_energy">    -43.44398800 </i>
  </energy>
  <time name="totalsc">    3.83    3.85</time>
  <eigenvalues>
   <array>
    <dimension dim="1">band</dimension>
    <dimension dim="2">kpoint</dimension>
    <dimension dim="3">spin</dimension>
    <field>eigene</field>
    <field>occ</field>
    <set>
     <set comment="spin 1">
      <set comment="kpoint 1">
       <r>  -30.1025    1.0000 </r>
       <r>  -30.0544    1.0000 </r>
       <r>  -24.2981    1.0000 </r>
       <r>  -20.9103    1.0000 </r>
       <r>  -14.8576    1.0000 </r>
       <r>  -12.1218    1.0000 </r>
       <r>   -8.9772    1.0000 </r>
       <r>   -8.4925    1.0000 </r>
       <r>   -8.4924    1.0000 </r>
       <r>   -8.2175    1.0000 </r>
       <r>   -8.2173    1.0000 </r>
       <r>   -5.9867    1.0000 </r>
       <r>   -5.9865    1.0000 </r>
       <r>   -4.7600    1.0000 </r>
       <r>   -4.7599    1.0000 </r>
       <r>   -0.7461    0.0000 </r>
       <r>    1.7080    0.0000 </r>
       <r>    1.9664    0.0000 </r>
       <r>    1.9665    0.0000 </r>
       <r>    2.9100    0.0000 </r>
       <r>    2.9260    0.0000 </r>
       <r>    3.2047    0.0000 </r>
       <r>    3.2910    0.0000 </r>
       <r>    3.2911    0.0000 </r>
       <r>    3.5554    0.0000 </r>
       <r>    4.0665    0.0000 </r>
       <r>    4.7156    0.0000 </r>
       <r>    5.4674    0.0000 </r>
       <r>    6.3253    0.0000 </r>
       <r>    7.1992    0.0000 </r>
       <r>    7.3536    0.0000 </r>
       <r>    8.3585    0.0000 </r>
      </set>
      <set comment="kpoint 2">
       <r>  -30.0865    1.0000 </r>
       <r>  -30.0390    1.0000 </r>
       <r>  -24.2614    1.0000 </r>
       <r>  -20.8788    1.0000 </r>
       <r>  -14.8337    1.0000 </r>
       <r>  -12.1145    1.0000 </r>
       <r>   -9.0606    1.0000 </r>
       <r>   -8.5571    1.0000 </r>
       <r>   -8.5429    1.0000 </r>
       <r>   -8.3086    1.0000 </r>
       <r>   -8.2439    1.0000 </r>
       <r>   -6.1105    1.0000 </r>
       <r>   -6.0336    1.0000 </r>
       <r>   -4.9033    1.0000 </r>
       <r>   -4.8070    1.0000 </r>
       <r>   -0.6486    0.0000 </r>
       <r>    1.6763    0.0000 </r>
       <r>    2.0629    0.0000 </r>
       <r>    2.1087    0.0000 </r>
       <r>    2.9663    0.0000 </r>
       <r>    2.9794    0.0000 </r>
       <r>    3.2519    0.0000 </r>
       <r>    3.3240    0.0000 </r>
       <r>    3.4425    0.0000 </r>
       <r>    3.6108    0.0000 </r>
       <r>    4.1230    0.0000 </r>
       <r>    4.7704    0.0000 </r>
       <r>    5.5221    0.0000 </r>
       <r>    6.3820    0.0000 </r>
       <r>    7.2435    0.0000 </r>
       <r>    7.3920    0.0000 </r>
       <r>    8.3475    0.0000 </r>
      </set>
      <set comment="kpoint 3">
       <r>  -30.0400    1.0000 </r>
       <r>  -29.9945    1.0000 </r>
       <r>  -24.1512    1.0000 </r>
       <r>  -20.7844    1.0000 </r>
       <r>  -14.7636    1.0000 </r>
       <r>  -12.0948    1.0000 </r>
       <r>   -9.3254    1.0000 </r>
       <r>   -8.8207    1.0000 </r>
       <r>   -8.6891    1.0000 </r>
       <r>   -8.4992    1.0000 </r>
       <r>   -8.3236    1.0000 </r>
       <r>   -6.4172    1.0000 </r>
       <r>   -6.1580    1.0000 </r>
       <r>   -5.2868    1.0000 </r>
       <r>   -4.9409    1.0000 </r>
       <r>   -0.4075    0.0000 </r>
       <r>    1.5917    0.0000 </r>
       <r>    2.3441    0.0000 </r>
       <r>    2.4639    0.0000 </r>
       <r>    3.1075    0.0000 </r>
       <r>    3.1445    0.0000 </r>
       <r>    3.3259    0.0000 </r>
       <r>    3.5218    0.0000 </r>
       <r>    3.7755    0.0000 </r>
       <r>    3.8671    0.0000 </r>
       <r>    4.2978    0.0000 </r>
       <r>    4.9342    0.0000 </r>
       <r>    5.6873    0.0000 </r>
       <r>    6.5507    0.0000 </r>
       <r>    7.3623    0.0000 </r>
       <r>    7.5031    0.0000 </r>
       <r>    8.3191    0.0000 </r>
      </set>
      <set comment="kpoint 4">
       <r>  -29.9649    1.0000 </r>
       <r>  -29.9227    1.0000 </r>
       <r>  -23.9678    1.0000 </r>
       <r>  -20.6276    1.0000 </r>
       <r>  -14.6504    1.0000 </r>
       <r>  -12.0694    1.0000 </r>
       <r>   -9.8084    1.0000 </r>
       <r>   -9.3144    1.0000 </r>
       <r>   -8.9160    1.0000 </r>
       <r>   -8.7013    1.0000 </r>
       <r>   -8.4535    1.0000 </r>
       <r>   -6.7745    1.0000 </r>
       <r>   -6.3236    1.0000 </r>
       <r>   -5.8144    1.0000 </r>
       <r>   -5.1377    1.0000 </r>
       <r>   -0.1229    0.0000 </r>
       <r>    1.4783    0.0000 </r>
       <r>    2.7823    0.0000 </r>
       <r>    2.8708    0.0000 </r>
       <r>    3.2397    0.0000 </r>
       <r>    3.4211    0.0000 </r>
       <r>    3.5400    0.0000 </r>
       <r>    3.8898    0.0000 </r>
       <r>    4.0525    0.0000 </r>
       <r>    4.5006    0.0000 </r>
       <r>    4.6023    0.0000 </r>
       <r>    5.2057    0.0000 </r>
       <r>    5.9656    0.0000 </r>
       <r>    6.8272    0.0000 </r>
       <r>    7.4626    0.0000 </r>
       <r>    7.7008    0.0000 </r>
       <r>    8.3213    0.0000 </r>
      </set>
      <set comment="kpoint 5">
       <r>  -29.8655    1.0000 </r>
       <r>  -29.8283    1.0000 </r>
       <r>  -23.7115    1.0000 </r>
       <r>  -20.4090    1.0000 </r>
       <r>  -14.5012    1.0000 </r>
       <r>  -12.0564    1.0000 </r>
       <r>  -10.5255    1.0000 </r>
       <r>   -9.9121    1.0000 </r>
       <r>   -9.2014    1.0000 </r>
       <r>   -8.9479    1.0000 </r>
       <r>   -8.6262    1.0000 </r>
       <r>   -7.0976    1.0000 </r>
       <r>   -6.4981    1.0000 </r>
       <r>   -6.3981    1.0000 </r>
       <r>   -5.3659    1.0000 </r>
       <r>    0.1120    0.0000 </r>
       <r>    1.3876    0.0000 </r>
       <r>    3.0977    0.0000 </r>
       <r>    3.3243    0.0000 </r>
       <r>    3.4847    0.0000 </r>
       <r>    3.8006    0.0000 </r>
       <r>    3.9172    0.0000 </r>
       <r>    4.3459    0.0000 </r>
       <r>    4.4588    0.0000 </r>
       <r>    5.0404    0.0000 </r>
       <r>    5.2724    0.0000 </r>
       <r>    5.5827    0.0000 </r>
       <r>    6.3601    0.0000 </r>
       <r>    7.1889    0.0000 </r>
       <r>    7.3803    0.0000 </r>
       <r>    8.0086    0.0000 </r>
       <r>    8.4804    0.0000 </r>
      </set>
      <set comment="kpoint 6">
       <r>  -29.7475    1.0000 </r>
       <r>  -29.7161    1.0000 </r>
       <r>  -23.3826    1.0000 </r>
       <r>  -20.1295    1.0000 </r>
       <r>  -14.3310    1.0000 </r>
       <r>  -12.1246    1.0000 </r>
       <r>  -11.3592    1.0000 </r>
       <r>  -10.5494    1.0000 </r>
       <r>   -9.5186    1.0000 </r>
       <r>   -9.2417    1.0000 </r>
       <r>   -8.8292    1.0000 </r>
       <r>   -7.3904    1.0000 </r>
       <r>   -6.9527    1.0000 </r>
       <r>   -6.6633    1.0000 </r>
       <r>   -5.5979    1.0000 </r>
       <r>    0.2232    0.0000 </r>
       <r>    1.3867    0.0000 </r>
       <r>    3.1448    0.0000 </r>
       <r>    3.8924    0.0000 </r>
       <r>    3.9067    0.0000 </r>
       <r>    4.2747    0.0000 </r>
       <r>    4.3947    0.0000 </r>
       <r>    4.8198    0.0000 </r>
       <r>    4.9548    0.0000 </r>
       <r>    5.5606    0.0000 </r>
       <r>    6.0575    0.0000 </r>
       <r>    6.1212    0.0000 </r>
       <r>    6.8655    0.0000 </r>
       <r>    7.0854    0.0000 </r>
       <r>    7.6945    0.0000 </r>
       <r>    8.3892    0.0000 </r>
       <r>    8.8050    0.0000 </r>
      </set>
      <set comment="kpoint 7">
       <r>  -29.6181    1.0000 </r>
       <r>  -29.5924    1.0000 </r>
       <r>  -22.9822    1.0000 </r>
       <r>  -19.7904    1.0000 </r>
       <r>  -14.1827    1.0000 </r>
       <r>  -12.6051    1.0000 </r>
       <r>  -11.9379    1.0000 </r>
       <r>  -11.1393    1.0000 </r>
       <r>   -9.8402    1.0000 </r>
       <r>   -9.5580    1.0000 </r>
       <r>   -9.0463    1.0000 </r>
       <r>   -7.7643    1.0000 </r>
       <r>   -7.3440    1.0000 </r>
       <r>   -6.8121    1.0000 </r>
       <r>   -5.8135    1.0000 </r>
       <r>    0.2053    0.0000 </r>
       <r>    1.4832    0.0000 </r>
       <r>    3.1378    0.0000 </r>
       <r>    4.2951    0.0000 </r>
       <r>    4.4681    0.0000 </r>
       <r>    4.8422    0.0000 </r>
       <r>    4.9449    0.0000 </r>
       <r>    5.2906    0.0000 </r>
       <r>    5.4774    0.0000 </r>
       <r>    6.0648    0.0000 </r>
       <r>    6.5700    0.0000 </r>
       <r>    6.9581    0.0000 </r>
       <r>    6.9876    0.0000 </r>
       <r>    7.4856    0.0000 </r>
       <r>    8.2386    0.0000 </r>
       <r>    8.7871    0.0000 </r>
       <r>    8.8959    0.0000 </r>
      </set>
      <set comment="kpoint 8">
       <r>  -29.4860    1.0000 </r>
       <r>  -29.4657    1.0000 </r>
       <r>  -22.5120    1.0000 </r>
       <r>  -19.3939    1.0000 </r>
       <r>  -14.2631    1.0000 </r>
       <r>  -13.2908    1.0000 </r>
       <r>  -12.4138    1.0000 </r>
       <r>  -11.4699    1.0000 </r>
       <r>  -10.1437    1.0000 </r>
       <r>   -9.8646    1.0000 </r>
       <r>   -9.2613    1.0000 </r>
       <r>   -8.2293    1.0000 </r>
       <r>   -7.5563    1.0000 </r>
       <r>   -6.9413    1.0000 </r>
       <r>   -6.0031    1.0000 </r>
       <r>    0.1324    0.0000 </r>
       <r>    1.6086    0.0000 </r>
       <r>    3.0561    0.0000 </r>
       <r>    4.5064    0.0000 </r>
       <r>    4.9598    0.0000 </r>
       <r>    5.4690    0.0000 </r>
       <r>    5.5122    0.0000 </r>
       <r>    5.7833    0.0000 </r>
       <r>    6.0908    0.0000 </r>
       <r>    6.5560    0.0000 </r>
       <r>    6.9362    0.0000 </r>
       <r>    7.4063    0.0000 </r>
       <r>    7.8180    0.0000 </r>
       <r>    8.1560    0.0000 </r>
       <r>    8.7812    0.0000 </r>
       <r>    9.1525    0.0000 </r>
       <r>    9.2034    0.0000 </r>
      </set>
      <set comment="kpoint 9">
       <r>  -29.3597    1.0000 </r>
       <r>  -29.3447    1.0000 </r>
       <r>  -21.9752    1.0000 </r>
       <r>  -18.9448    1.0000 </r>
       <r>  -14.9539    1.0000 </r>
       <r>  -13.5865    1.0000 </r>
       <r>  -12.9094    1.0000 </r>
       <r>  -11.5907    1.0000 </r>
       <r>  -10.4114    1.0000 </r>
       <r>  -10.1289    1.0000 </r>
       <r>   -9.4585    1.0000 </r>
       <r>   -8.6642    1.0000 </r>
       <r>   -7.7058    1.0000 </r>
       <r>   -7.0497    1.0000 </r>
       <r>   -6.1607    1.0000 </r>
       <r>    0.0688    0.0000 </r>
       <r>    1.6995    0.0000 </r>
       <r>    2.8532    0.0000 </r>
       <r>    4.5279    0.0000 </r>
       <r>    5.3546    0.0000 </r>
       <r>    5.8576    0.0000 </r>
       <r>    6.2677    0.0000 </r>
       <r>    6.4860    0.0000 </r>
       <r>    6.7375    0.0000 </r>
       <r>    7.0744    0.0000 </r>
       <r>    7.5193    0.0000 </r>
       <r>    8.1398    0.0000 </r>
       <r>    8.5602    0.0000 </r>
       <r>    8.8918    0.0000 </r>
       <r>    9.1381    0.0000 </r>
       <r>    9.5820    0.0000 </r>
       <r>    9.8111    0.0000 </r>
      </set>
      <set comment="kpoint 10">
       <r>  -29.2492    1.0000 </r>
       <r>  -29.2384    1.0000 </r>
       <r>  -21.3792    1.0000 </r>
       <r>  -18.4550    1.0000 </r>
       <r>  -15.8657    1.0000 </r>
       <r>  -14.1478    1.0000 </r>
       <r>  -12.9406    1.0000 </r>
       <r>  -11.6828    1.0000 </r>
       <r>  -10.6311    1.0000 </r>
       <r>  -10.3264    1.0000 </r>
       <r>   -9.6251    1.0000 </r>
       <r>   -9.0253    1.0000 </r>
       <r>   -7.8269    1.0000 </r>
       <r>   -7.1360    1.0000 </r>
       <r>   -6.2845    1.0000 </r>
       <r>    0.0469    0.0000 </r>
       <r>    1.7007    0.0000 </r>
       <r>    2.5871    0.0000 </r>
       <r>    4.5894    0.0000 </r>
       <r>    5.6444    0.0000 </r>
       <r>    5.9229    0.0000 </r>
       <r>    7.1229    0.0000 </r>
       <r>    7.2869    0.0000 </r>
       <r>    7.4927    0.0000 </r>
       <r>    7.8603    0.0000 </r>
       <r>    8.3391    0.0000 </r>
       <r>    8.9959    0.0000 </r>
       <r>    9.1709    0.0000 </r>
       <r>    9.3265    0.0000 </r>
       <r>    9.6759    0.0000 </r>
       <r>    9.9916    0.0000 </r>
       <r>   10.6470    0.0000 </r>
      </set>
      <set comment="kpoint 11">
       <r>  -29.1624    1.0000 </r>
       <r>  -29.1556    1.0000 </r>
       <r>  -20.7422    1.0000 </r>
       <r>  -17.9801    1.0000 </r>
       <r>  -16.7014    1.0000 </r>
       <r>  -14.8705    1.0000 </r>
       <r>  -12.7697    1.0000 </r>
       <r>  -11.7956    1.0000 </r>
       <r>  -10.7935    1.0000 </r>
       <r>  -10.4501    1.0000 </r>
       <r>   -9.7518    1.0000 </r>
       <r>   -9.2945    1.0000 </r>
       <r>   -7.9216    1.0000 </r>
       <r>   -7.1993    1.0000 </r>
       <r>   -6.3732    1.0000 </r>
       <r>    0.0738    0.0000 </r>
       <r>    1.5612    0.0000 </r>
       <r>    2.4107    0.0000 </r>
       <r>    4.7400    0.0000 </r>
       <r>    5.7542    0.0000 </r>
       <r>    5.8375    0.0000 </r>
       <r>    8.0636    0.0000 </r>
       <r>    8.1877    0.0000 </r>
       <r>    8.4469    0.0000 </r>
       <r>    8.8171    0.0000 </r>
       <r>    9.2547    0.0000 </r>
       <r>    9.4447    0.0000 </r>
       <r>    9.6196    0.0000 </r>
       <r>    9.9585    0.0000 </r>
       <r>   10.1253    0.0000 </r>
       <r>   10.7519    0.0000 </r>
       <r>   11.5749    0.0000 </r>
      </set>
      <set comment="kpoint 12">
       <r>  -29.1070    1.0000 </r>
       <r>  -29.1034    1.0000 </r>
       <r>  -20.1264    1.0000 </r>
       <r>  -17.9223    1.0000 </r>
       <r>  -16.9776    1.0000 </r>
       <r>  -15.5654    1.0000 </r>
       <r>  -12.5985    1.0000 </r>
       <r>  -11.9150    1.0000 </r>
       <r>  -10.8930    1.0000 </r>
       <r>  -10.5121    1.0000 </r>
       <r>   -9.8303    1.0000 </r>
       <r>   -9.4610    1.0000 </r>
       <r>   -7.9839    1.0000 </r>
       <r>   -7.2382    1.0000 </r>
       <r>   -6.4266    1.0000 </r>
       <r>    0.1301    0.0000 </r>
       <r>    1.3600    0.0000 </r>
       <r>    2.3524    0.0000 </r>
       <r>    4.9521    0.0000 </r>
       <r>    5.5051    0.0000 </r>
       <r>    5.9454    0.0000 </r>
       <r>    9.0007    0.0000 </r>
       <r>    9.1896    0.0000 </r>
       <r>    9.4432    0.0000 </r>
       <r>    9.5869    0.0000 </r>
       <r>    9.8912    0.0000 </r>
       <r>    9.8940    0.0000 </r>
       <r>   10.1921    0.0000 </r>
       <r>   10.4696    0.0000 </r>
       <r>   10.9953    0.0000 </r>
       <r>   11.4821    0.0000 </r>
       <r>   11.6241    0.0000 </r>
      </set>
      <set comment="kpoint 13">
       <r>  -29.0878    1.0000 </r>
       <r>  -29.0858    1.0000 </r>
       <r>  -19.7971    1.0000 </r>
       <r>  -18.1941    1.0000 </r>
       <r>  -16.7162    1.0000 </r>
       <r>  -15.9868    1.0000 </r>
       <r>  -12.5192    1.0000 </r>
       <r>  -11.9760    1.0000 </r>
       <r>  -10.9266    1.0000 </r>
       <r>  -10.5303    1.0000 </r>
       <r>   -9.8568    1.0000 </r>
       <r>   -9.5175    1.0000 </r>
       <r>   -8.0059    1.0000 </r>
       <r>   -7.2512    1.0000 </r>
       <r>   -6.4444    1.0000 </r>
       <r>    0.1623    0.0000 </r>
       <r>    1.2664    0.0000 </r>
       <r>    2.3422    0.0000 </r>
       <r>    5.1415    0.0000 </r>
       <r>    5.3001    0.0000 </r>
       <r>    5.9799    0.0000 </r>
       <r>    9.2724    0.0000 </r>
       <r>    9.9810    0.0000 </r>
       <r>    9.9820    0.0000 </r>
       <r>   10.2373    0.0000 </r>
       <r>   10.2582    0.0000 </r>
       <r>   10.5193    0.0000 </r>
       <r>   10.5490    0.0000 </r>
       <r>   10.7772    0.0000 </r>
       <r>   10.8024    0.0000 </r>
       <r>   11.0766    0.0000 </r>
       <r>   11.1333    0.0000 </r>
      </set>
      <set comment="kpoint 14">
       <r>  -30.0555    1.0000 </r>
       <r>  -30.0093    1.0000 </r>
       <r>  -24.1879    1.0000 </r>
       <r>  -20.8159    1.0000 </r>
       <r>  -14.7868    1.0000 </r>
       <r>  -12.1010    1.0000 </r>
       <r>   -9.2331    1.0000 </r>
       <r>   -8.6879    1.0000 </r>
       <r>   -8.6763    1.0000 </r>
       <r>   -8.4583    1.0000 </r>
       <r>   -8.2894    1.0000 </r>
       <r>   -6.3110    1.0000 </r>
       <r>   -6.1369    1.0000 </r>
       <r>   -5.1472    1.0000 </r>
       <r>   -4.9141    1.0000 </r>
       <r>   -0.4786    0.0000 </r>
       <r>    1.6359    0.0000 </r>
       <r>    2.2217    0.0000 </r>
       <r>    2.3634    0.0000 </r>
       <r>    3.0771    0.0000 </r>
       <r>    3.0895    0.0000 </r>
       <r>    3.3630    0.0000 </r>
       <r>    3.3684    0.0000 </r>
       <r>    3.7202    0.0000 </r>
       <r>    3.7391    0.0000 </r>
       <r>    4.2419    0.0000 </r>
       <r>    4.8796    0.0000 </r>
       <r>    5.6323    0.0000 </r>
       <r>    6.4947    0.0000 </r>
       <r>    7.3272    0.0000 </r>
       <r>    7.4653    0.0000 </r>
       <r>    8.3268    0.0000 </r>
      </set>
      <set comment="kpoint 15">
       <r>  -29.9946    1.0000 </r>
       <r>  -29.9511    1.0000 </r>
       <r>  -24.0412    1.0000 </r>
       <r>  -20.6903    1.0000 </r>
       <r>  -14.6950    1.0000 </r>
       <r>  -12.0781    1.0000 </r>
       <r>   -9.5956    1.0000 </r>
       <r>   -9.0746    1.0000 </r>
       <r>   -8.8914    1.0000 </r>
       <r>   -8.6501    1.0000 </r>
       <r>   -8.3785    1.0000 </r>
       <r>   -6.6145    1.0000 </r>
       <r>   -6.3223    1.0000 </r>
       <r>   -5.5565    1.0000 </r>
       <r>   -5.1071    1.0000 </r>
       <r>   -0.2079    0.0000 </r>
       <r>    1.5731    0.0000 </r>
       <r>    2.5120    0.0000 </r>
       <r>    2.7593    0.0000 </r>
       <r>    3.2646    0.0000 </r>
       <r>    3.3163    0.0000 </r>
       <r>    3.4669    0.0000 </r>
       <r>    3.6465    0.0000 </r>
       <r>    3.9382    0.0000 </r>
       <r>    4.2277    0.0000 </r>
       <r>    4.5211    0.0000 </r>
       <r>    5.0972    0.0000 </r>
       <r>    5.8560    0.0000 </r>
       <r>    6.7177    0.0000 </r>
       <r>    7.4599    0.0000 </r>
       <r>    7.6039    0.0000 </r>
       <r>    8.3065    0.0000 </r>
      </set>
      <set comment="kpoint 16">
       <r>  -29.9073    1.0000 </r>
       <r>  -29.8680    1.0000 </r>
       <r>  -23.8213    1.0000 </r>
       <r>  -20.5026    1.0000 </r>
       <r>  -14.5635    1.0000 </r>
       <r>  -12.0570    1.0000 </r>
       <r>  -10.1801    1.0000 </r>
       <r>   -9.6328    1.0000 </r>
       <r>   -9.1733    1.0000 </r>
       <r>   -8.8754    1.0000 </r>
       <r>   -8.5176    1.0000 </r>
       <r>   -6.9370    1.0000 </r>
       <r>   -6.5444    1.0000 </r>
       <r>   -6.0512    1.0000 </r>
       <r>   -5.3376    1.0000 </r>
       <r>    0.0745    0.0000 </r>
       <r>    1.4878    0.0000 </r>
       <r>    2.9194    0.0000 </r>
       <r>    3.1292    0.0000 </r>
       <r>    3.4535    0.0000 </r>
       <r>    3.6534    0.0000 </r>
       <r>    3.7554    0.0000 </r>
       <r>    4.0944    0.0000 </r>
       <r>    4.2664    0.0000 </r>
       <r>    4.7164    0.0000 </r>
       <r>    5.0675    0.0000 </r>
       <r>    5.4216    0.0000 </r>
       <r>    6.1992    0.0000 </r>
       <r>    7.0437    0.0000 </r>
       <r>    7.4857    0.0000 </r>
       <r>    7.8340    0.0000 </r>
       <r>    8.3840    0.0000 </r>
      </set>
      <set comment="kpoint 17">
       <r>  -29.7985    1.0000 </r>
       <r>  -29.7646    1.0000 </r>
       <r>  -23.5287    1.0000 </r>
       <r>  -20.2535    1.0000 </r>
       <r>  -14.4025    1.0000 </r>
       <r>  -12.0698    1.0000 </r>
       <r>  -10.9614    1.0000 </r>
       <r>  -10.2483    1.0000 </r>
       <r>   -9.4967    1.0000 </r>
       <r>   -9.1452    1.0000 </r>
       <r>   -8.7055    1.0000 </r>
       <r>   -7.2441    1.0000 </r>
       <r>   -6.8287    1.0000 </r>
       <r>   -6.4917    1.0000 </r>
       <r>   -5.5749    1.0000 </r>
       <r>    0.2823    0.0000 </r>
       <r>    1.4387    0.0000 </r>
       <r>    3.2097    0.0000 </r>
       <r>    3.4717    0.0000 </r>
       <r>    3.8234    0.0000 </r>
       <r>    4.0849    0.0000 </r>
       <r>    4.1856    0.0000 </r>
       <r>    4.6137    0.0000 </r>
       <r>    4.7151    0.0000 </r>
       <r>    5.2431    0.0000 </r>
       <r>    5.7524    0.0000 </r>
       <r>    5.8542    0.0000 </r>
       <r>    6.6670    0.0000 </r>
       <r>    7.2622    0.0000 </r>
       <r>    7.4957    0.0000 </r>
       <r>    8.1488    0.0000 </r>
       <r>    8.6589    0.0000 </r>
      </set>
      <set comment="kpoint 18">
       <r>  -29.6747    1.0000 </r>
       <r>  -29.6465    1.0000 </r>
       <r>  -23.1639    1.0000 </r>
       <r>  -19.9440    1.0000 </r>
       <r>  -14.2362    1.0000 </r>
       <r>  -12.2818    1.0000 </r>
       <r>  -11.7189    1.0000 </r>
       <r>  -10.8655    1.0000 </r>
       <r>   -9.8325    1.0000 </r>
       <r>   -9.4430    1.0000 </r>
       <r>   -8.9309    1.0000 </r>
       <r>   -7.5835    1.0000 </r>
       <r>   -7.1915    1.0000 </r>
       <r>   -6.7455    1.0000 </r>
       <r>   -5.7990    1.0000 </r>
       <r>    0.3539    0.0000 </r>
       <r>    1.4887    0.0000 </r>
       <r>    3.2483    0.0000 </r>
       <r>    3.9551    0.0000 </r>
       <r>    4.3133    0.0000 </r>
       <r>    4.6029    0.0000 </r>
       <r>    4.7043    0.0000 </r>
       <r>    5.1096    0.0000 </r>
       <r>    5.2388    0.0000 </r>
       <r>    5.8242    0.0000 </r>
       <r>    6.3588    0.0000 </r>
       <r>    6.4441    0.0000 </r>
       <r>    7.0605    0.0000 </r>
       <r>    7.2423    0.0000 </r>
       <r>    7.9942    0.0000 </r>
       <r>    8.5021    0.0000 </r>
       <r>    8.8682    0.0000 </r>
      </set>
      <set comment="kpoint 19">
       <r>  -29.5439    1.0000 </r>
       <r>  -29.5211    1.0000 </r>
       <r>  -22.7285    1.0000 </r>
       <r>  -19.5759    1.0000 </r>
       <r>  -14.1554    1.0000 </r>
       <r>  -12.9714    1.0000 </r>
       <r>  -12.1637    1.0000 </r>
       <r>  -11.3369    1.0000 </r>
       <r>  -10.1536    1.0000 </r>
       <r>   -9.7440    1.0000 </r>
       <r>   -9.1727    1.0000 </r>
       <r>   -8.0138    1.0000 </r>
       <r>   -7.4573    1.0000 </r>
       <r>   -6.9047    1.0000 </r>
       <r>   -5.9987    1.0000 </r>
       <r>    0.3181    0.0000 </r>
       <r>    1.6152    0.0000 </r>
       <r>    3.2107    0.0000 </r>
       <r>    4.3615    0.0000 </r>
       <r>    4.7836    0.0000 </r>
       <r>    5.2089    0.0000 </r>
       <r>    5.2645    0.0000 </r>
       <r>    5.5518    0.0000 </r>
       <r>    5.8157    0.0000 </r>
       <r>    6.3487    0.0000 </r>
       <r>    6.7798    0.0000 </r>
       <r>    7.0889    0.0000 </r>
       <r>    7.3637    0.0000 </r>
       <r>    7.8728    0.0000 </r>
       <r>    8.5478    0.0000 </r>
       <r>    8.8722    0.0000 </r>
       <r>    9.0038    0.0000 </r>
      </set>
      <set comment="kpoint 20">
       <r>  -29.4149    1.0000 </r>
       <r>  -29.3973    1.0000 </r>
       <r>  -22.2246    1.0000 </r>
       <r>  -19.1525    1.0000 </r>
       <r>  -14.5363    1.0000 </r>
       <r>  -13.4430    1.0000 </r>
       <r>  -12.6918    1.0000 </r>
       <r>  -11.5374    1.0000 </r>
       <r>  -10.4394    1.0000 </r>
       <r>  -10.0206    1.0000 </r>
       <r>   -9.4080    1.0000 </r>
       <r>   -8.4546    1.0000 </r>
       <r>   -7.6403    1.0000 </r>
       <r>   -7.0258    1.0000 </r>
       <r>   -6.1685    1.0000 </r>
       <r>    0.2554    0.0000 </r>
       <r>    1.7407    0.0000 </r>
       <r>    3.0688    0.0000 </r>
       <r>    4.5416    0.0000 </r>
       <r>    5.1149    0.0000 </r>
       <r>    5.7543    0.0000 </r>
       <r>    5.9171    0.0000 </r>
       <r>    6.1555    0.0000 </r>
       <r>    6.4636    0.0000 </r>
       <r>    6.8316    0.0000 </r>
       <r>    7.2183    0.0000 </r>
       <r>    7.7863    0.0000 </r>
       <r>    8.0903    0.0000 </r>
       <r>    8.5547    0.0000 </r>
       <r>    8.9703    0.0000 </r>
       <r>    9.2734    0.0000 </r>
       <r>    9.4839    0.0000 </r>
      </set>
      <set comment="kpoint 21">
       <r>  -29.2963    1.0000 </r>
       <r>  -29.2834    1.0000 </r>
       <r>  -21.6571    1.0000 </r>
       <r>  -18.6806    1.0000 </r>
       <r>  -15.3909    1.0000 </r>
       <r>  -13.8178    1.0000 </r>
       <r>  -12.9609    1.0000 </r>
       <r>  -11.6386    1.0000 </r>
       <r>  -10.6759    1.0000 </r>
       <r>  -10.2460    1.0000 </r>
       <r>   -9.6168    1.0000 </r>
       <r>   -8.8415    1.0000 </r>
       <r>   -7.7841    1.0000 </r>
       <r>   -7.1212    1.0000 </r>
       <r>   -6.3062    1.0000 </r>
       <r>    0.2190    0.0000 </r>
       <r>    1.7994    0.0000 </r>
       <r>    2.8242    0.0000 </r>
       <r>    4.5909    0.0000 </r>
       <r>    5.3692    0.0000 </r>
       <r>    6.0539    0.0000 </r>
       <r>    6.7218    0.0000 </r>
       <r>    6.9162    0.0000 </r>
       <r>    7.1249    0.0000 </r>
       <r>    7.4739    0.0000 </r>
       <r>    7.9456    0.0000 </r>
       <r>    8.5900    0.0000 </r>
       <r>    8.8005    0.0000 </r>
       <r>    9.2118    0.0000 </r>
       <r>    9.3098    0.0000 </r>
       <r>    9.6801    0.0000 </r>
       <r>   10.2520    0.0000 </r>
      </set>
      <set comment="kpoint 22">
       <r>  -29.1972    1.0000 </r>
       <r>  -29.1886    1.0000 </r>
       <r>  -21.0372    1.0000 </r>
       <r>  -18.1839    1.0000 </r>
       <r>  -16.2874    1.0000 </r>
       <r>  -14.4961    1.0000 </r>
       <r>  -12.8463    1.0000 </r>
       <r>  -11.7439    1.0000 </r>
       <r>  -10.8585    1.0000 </r>
       <r>  -10.4019    1.0000 </r>
       <r>   -9.7849    1.0000 </r>
       <r>   -9.1480    1.0000 </r>
       <r>   -7.8993    1.0000 </r>
       <r>   -7.1929    1.0000 </r>
       <r>   -6.4101    1.0000 </r>
       <r>    0.2309    0.0000 </r>
       <r>    1.7216    0.0000 </r>
       <r>    2.6057    0.0000 </r>
       <r>    4.6945    0.0000 </r>
       <r>    5.5188    0.0000 </r>
       <r>    6.0501    0.0000 </r>
       <r>    7.6204    0.0000 </r>
       <r>    7.7597    0.0000 </r>
       <r>    7.9891    0.0000 </r>
       <r>    8.3605    0.0000 </r>
       <r>    8.8317    0.0000 </r>
       <r>    9.3369    0.0000 </r>
       <r>    9.3765    0.0000 </r>
       <r>    9.5061    0.0000 </r>
       <r>    9.8944    0.0000 </r>
       <r>   10.3222    0.0000 </r>
       <r>   11.1411    0.0000 </r>
      </set>
      <set comment="kpoint 23">
       <r>  -29.1258    1.0000 </r>
       <r>  -29.1208    1.0000 </r>
       <r>  -20.3975    1.0000 </r>
       <r>  -17.8223    1.0000 </r>
       <r>  -16.9462    1.0000 </r>
       <r>  -15.2147    1.0000 </r>
       <r>  -12.6666    1.0000 </r>
       <r>  -11.8641    1.0000 </r>
       <r>  -10.9854    1.0000 </r>
       <r>  -10.4898    1.0000 </r>
       <r>   -9.9023    1.0000 </r>
       <r>   -9.3600    1.0000 </r>
       <r>   -7.9828    1.0000 </r>
       <r>   -7.2413    1.0000 </r>
       <r>   -6.4799    1.0000 </r>
       <r>    0.2891    0.0000 </r>
       <r>    1.5138    0.0000 </r>
       <r>    2.5143    0.0000 </r>
       <r>    4.8688    0.0000 </r>
       <r>    5.5019    0.0000 </r>
       <r>    5.9808    0.0000 </r>
       <r>    8.5859    0.0000 </r>
       <r>    8.7146    0.0000 </r>
       <r>    9.0076    0.0000 </r>
       <r>    9.3704    0.0000 </r>
       <r>    9.4444    0.0000 </r>
       <r>    9.6653    0.0000 </r>
       <r>    9.8736    0.0000 </r>
       <r>   10.2181    0.0000 </r>
       <r>   10.5132    0.0000 </r>
       <r>   11.2730    0.0000 </r>
       <r>   12.0081    0.0000 </r>
      </set>
      <set comment="kpoint 24">
       <r>  -29.0885    1.0000 </r>
       <r>  -29.0858    1.0000 </r>
       <r>  -19.8671    1.0000 </r>
       <r>  -18.0808    1.0000 </r>
       <r>  -16.7953    1.0000 </r>
       <r>  -15.8374    1.0000 </r>
       <r>  -12.5316    1.0000 </r>
       <r>  -11.9629    1.0000 </r>
       <r>  -11.0515    1.0000 </r>
       <r>  -10.5266    1.0000 </r>
       <r>   -9.9629    1.0000 </r>
       <r>   -9.4685    1.0000 </r>
       <r>   -8.0273    1.0000 </r>
       <r>   -7.2658    1.0000 </r>
       <r>   -6.5152    1.0000 </r>
       <r>    0.3549    0.0000 </r>
       <r>    1.3336    0.0000 </r>
       <r>    2.4952    0.0000 </r>
       <r>    5.0866    0.0000 </r>
       <r>    5.3281    0.0000 </r>
       <r>    5.9636    0.0000 </r>
       <r>    9.2774    0.0000 </r>
       <r>    9.6800    0.0000 </r>
       <r>    9.7584    0.0000 </r>
       <r>    9.9144    0.0000 </r>
       <r>   10.1640    0.0000 </r>
       <r>   10.3445    0.0000 </r>
       <r>   10.5019    0.0000 </r>
       <r>   10.8788    0.0000 </r>
       <r>   11.0404    0.0000 </r>
       <r>   11.1352    0.0000 </r>
       <r>   11.4428    0.0000 </r>
      </set>
      <set comment="kpoint 25">
       <r>  -29.9215    1.0000 </r>
       <r>  -29.8815    1.0000 </r>
       <r>  -23.8579    1.0000 </r>
       <r>  -20.5338    1.0000 </r>
       <r>  -14.5848    1.0000 </r>
       <r>  -12.0584    1.0000 </r>
       <r>  -10.0381    1.0000 </r>
       <r>   -9.4802    1.0000 </r>
       <r>   -9.2465    1.0000 </r>
       <r>   -8.8707    1.0000 </r>
       <r>   -8.4634    1.0000 </r>
       <r>   -6.8187    1.0000 </r>
       <r>   -6.6315    1.0000 </r>
       <r>   -5.8670    1.0000 </r>
       <r>   -5.3884    1.0000 </r>
       <r>    0.0783    0.0000 </r>
       <r>    1.5934    0.0000 </r>
       <r>    2.6935    0.0000 </r>
       <r>    3.1672    0.0000 </r>
       <r>    3.5597    0.0000 </r>
       <r>    3.5920    0.0000 </r>
       <r>    3.7358    0.0000 </r>
       <r>    3.8236    0.0000 </r>
       <r>    4.2106    0.0000 </r>
       <r>    4.5816    0.0000 </r>
       <r>    5.0341    0.0000 </r>
       <r>    5.3671    0.0000 </r>
       <r>    6.1492    0.0000 </r>
       <r>    6.9919    0.0000 </r>
       <r>    7.5762    0.0000 </r>
       <r>    7.7239    0.0000 </r>
       <r>    8.3516    0.0000 </r>
      </set>
      <set comment="kpoint 26">
       <r>  -29.8247    1.0000 </r>
       <r>  -29.7893    1.0000 </r>
       <r>  -23.6017    1.0000 </r>
       <r>  -20.3155    1.0000 </r>
       <r>  -14.4403    1.0000 </r>
       <r>  -12.0538    1.0000 </r>
       <r>  -10.6648    1.0000 </r>
       <r>  -10.0380    1.0000 </r>
       <r>   -9.6110    1.0000 </r>
       <r>   -9.1521    1.0000 </r>
       <r>   -8.6038    1.0000 </r>
       <r>   -7.0862    1.0000 </r>
       <r>   -6.9270    1.0000 </r>
       <r>   -6.2301    1.0000 </r>
       <r>   -5.6795    1.0000 </r>
       <r>    0.3826    0.0000 </r>
       <r>    1.5877    0.0000 </r>
       <r>    2.9905    0.0000 </r>
       <r>    3.5560    0.0000 </r>
       <r>    3.8145    0.0000 </r>
       <r>    3.9902    0.0000 </r>
       <r>    4.0802    0.0000 </r>
       <r>    4.2818    0.0000 </r>
       <r>    4.5889    0.0000 </r>
       <r>    4.9792    0.0000 </r>
       <r>    5.6385    0.0000 </r>
       <r>    5.7427    0.0000 </r>
       <r>    6.5783    0.0000 </r>
       <r>    7.3593    0.0000 </r>
       <r>    7.5418    0.0000 </r>
       <r>    7.8804    0.0000 </r>
       <r>    8.5718    0.0000 </r>
      </set>
      <set comment="kpoint 27">
       <r>  -29.7102    1.0000 </r>
       <r>  -29.6802    1.0000 </r>
       <r>  -23.2731    1.0000 </r>
       <r>  -20.0364    1.0000 </r>
       <r>  -14.2777    1.0000 </r>
       <r>  -12.1279    1.0000 </r>
       <r>  -11.4282    1.0000 </r>
       <r>  -10.6184    1.0000 </r>
       <r>   -9.9797    1.0000 </r>
       <r>   -9.4685    1.0000 </r>
       <r>   -8.8060    1.0000 </r>
       <r>   -7.4719    1.0000 </r>
       <r>   -7.1226    1.0000 </r>
       <r>   -6.5938    1.0000 </r>
       <r>   -5.9289    1.0000 </r>
       <r>    0.6153    0.0000 </r>
       <r>    1.5918    0.0000 </r>
       <r>    3.3471    0.0000 </r>
       <r>    3.7625    0.0000 </r>
       <r>    4.2198    0.0000 </r>
       <r>    4.4727    0.0000 </r>
       <r>    4.5545    0.0000 </r>
       <r>    4.8926    0.0000 </r>
       <r>    5.0637    0.0000 </r>
       <r>    5.4966    0.0000 </r>
       <r>    6.1458    0.0000 </r>
       <r>    6.2185    0.0000 </r>
       <r>    7.1099    0.0000 </r>
       <r>    7.3128    0.0000 </r>
       <r>    7.8398    0.0000 </r>
       <r>    8.1026    0.0000 </r>
       <r>    8.8755    0.0000 </r>
      </set>
      <set comment="kpoint 28">
       <r>  -29.5849    1.0000 </r>
       <r>  -29.5602    1.0000 </r>
       <r>  -22.8731    1.0000 </r>
       <r>  -19.6977    1.0000 </r>
       <r>  -14.1426    1.0000 </r>
       <r>  -12.5740    1.0000 </r>
       <r>  -12.0091    1.0000 </r>
       <r>  -11.1292    1.0000 </r>
       <r>  -10.3384    1.0000 </r>
       <r>   -9.7813    1.0000 </r>
       <r>   -9.0610    1.0000 </r>
       <r>   -7.8786    1.0000 </r>
       <r>   -7.3313    1.0000 </r>
       <r>   -6.8643    1.0000 </r>
       <r>   -6.1381    1.0000 </r>
       <r>    0.7069    0.0000 </r>
       <r>    1.6847    0.0000 </r>
       <r>    3.5203    0.0000 </r>
       <r>    4.0471    0.0000 </r>
       <r>    4.7194    0.0000 </r>
       <r>    5.0287    0.0000 </r>
       <r>    5.1060    0.0000 </r>
       <r>    5.4345    0.0000 </r>
       <r>    5.6303    0.0000 </r>
       <r>    6.1464    0.0000 </r>
       <r>    6.5051    0.0000 </r>
       <r>    6.7575    0.0000 </r>
       <r>    7.2337    0.0000 </r>
       <r>    7.7038    0.0000 </r>
       <r>    8.3595    0.0000 </r>
       <r>    8.4035    0.0000 </r>
       <r>    8.9199    0.0000 </r>
      </set>
      <set comment="kpoint 29">
       <r>  -29.4570    1.0000 </r>
       <r>  -29.4376    1.0000 </r>
       <r>  -22.4034    1.0000 </r>
       <r>  -19.3017    1.0000 </r>
       <r>  -14.2378    1.0000 </r>
       <r>  -13.2304    1.0000 </r>
       <r>  -12.4514    1.0000 </r>
       <r>  -11.4409    1.0000 </r>
       <r>  -10.6588    1.0000 </r>
       <r>  -10.0592    1.0000 </r>
       <r>   -9.3452    1.0000 </r>
       <r>   -8.2828    1.0000 </r>
       <r>   -7.5498    1.0000 </r>
       <r>   -7.0293    1.0000 </r>
       <r>   -6.3133    1.0000 </r>
       <r>    0.6944    0.0000 </r>
       <r>    1.8407    0.0000 </r>
       <r>    3.4716    0.0000 </r>
       <r>    4.3912    0.0000 </r>
       <r>    5.0598    0.0000 </r>
       <r>    5.6393    0.0000 </r>
       <r>    5.6776    0.0000 </r>
       <r>    5.9366    0.0000 </r>
       <r>    6.2654    0.0000 </r>
       <r>    6.7077    0.0000 </r>
       <r>    6.9796    0.0000 </r>
       <r>    7.3954    0.0000 </r>
       <r>    7.6004    0.0000 </r>
       <r>    8.3145    0.0000 </r>
       <r>    8.7628    0.0000 </r>
       <r>    8.7947    0.0000 </r>
       <r>    9.2674    0.0000 </r>
      </set>
      <set comment="kpoint 30">
       <r>  -29.3352    1.0000 </r>
       <r>  -29.3205    1.0000 </r>
       <r>  -21.8674    1.0000 </r>
       <r>  -18.8531    1.0000 </r>
       <r>  -14.9048    1.0000 </r>
       <r>  -13.5663    1.0000 </r>
       <r>  -12.8631    1.0000 </r>
       <r>  -11.5977    1.0000 </r>
       <r>  -10.9200    1.0000 </r>
       <r>  -10.2798    1.0000 </r>
       <r>   -9.6272    1.0000 </r>
       <r>   -8.6564    1.0000 </r>
       <r>   -7.7428    1.0000 </r>
       <r>   -7.1361    1.0000 </r>
       <r>   -6.4578    1.0000 </r>
       <r>    0.6649    0.0000 </r>
       <r>    1.9669    0.0000 </r>
       <r>    3.2868    0.0000 </r>
       <r>    4.6163    0.0000 </r>
       <r>    5.1311    0.0000 </r>
       <r>    6.1276    0.0000 </r>
       <r>    6.4225    0.0000 </r>
       <r>    6.6450    0.0000 </r>
       <r>    6.9068    0.0000 </r>
       <r>    7.2148    0.0000 </r>
       <r>    7.6535    0.0000 </r>
       <r>    8.1752    0.0000 </r>
       <r>    8.2839    0.0000 </r>
       <r>    8.9757    0.0000 </r>
       <r>    8.9857    0.0000 </r>
       <r>    9.2352    0.0000 </r>
       <r>    9.9592    0.0000 </r>
      </set>
      <set comment="kpoint 31">
       <r>  -29.2277    1.0000 </r>
       <r>  -29.2174    1.0000 </r>
       <r>  -21.2726    1.0000 </r>
       <r>  -18.3637    1.0000 </r>
       <r>  -15.7949    1.0000 </r>
       <r>  -14.1251    1.0000 </r>
       <r>  -12.8747    1.0000 </r>
       <r>  -11.7236    1.0000 </r>
       <r>  -11.1200    1.0000 </r>
       <r>  -10.4292    1.0000 </r>
       <r>   -9.8786    1.0000 </r>
       <r>   -8.9727    1.0000 </r>
       <r>   -7.8985    1.0000 </r>
       <r>   -7.2115    1.0000 </r>
       <r>   -6.5721    1.0000 </r>
       <r>    0.6709    0.0000 </r>
       <r>    1.9716    0.0000 </r>
       <r>    3.0683    0.0000 </r>
       <r>    4.7332    0.0000 </r>
       <r>    5.2106    0.0000 </r>
       <r>    6.2974    0.0000 </r>
       <r>    7.2698    0.0000 </r>
       <r>    7.4362    0.0000 </r>
       <r>    7.6424    0.0000 </r>
       <r>    8.0086    0.0000 </r>
       <r>    8.4769    0.0000 </r>
       <r>    8.9131    0.0000 </r>
       <r>    9.1223    0.0000 </r>
       <r>    9.2058    0.0000 </r>
       <r>    9.4462    0.0000 </r>
       <r>    9.9572    0.0000 </r>
       <r>   10.7982    0.0000 </r>
      </set>
      <set comment="kpoint 32">
       <r>  -29.1442    1.0000 </r>
       <r>  -29.1375    1.0000 </r>
       <r>  -20.6374    1.0000 </r>
       <r>  -17.8884    1.0000 </r>
       <r>  -16.6177    1.0000 </r>
       <r>  -14.8266    1.0000 </r>
       <r>  -12.7177    1.0000 </r>
       <r>  -11.8465    1.0000 </r>
       <r>  -11.2707    1.0000 </r>
       <r>  -10.5091    1.0000 </r>
       <r>  -10.0786    1.0000 </r>
       <r>   -9.2126    1.0000 </r>
       <r>   -8.0154    1.0000 </r>
       <r>   -7.2646    1.0000 </r>
       <r>   -6.6559    1.0000 </r>
       <r>    0.7332    0.0000 </r>
       <r>    1.7990    0.0000 </r>
       <r>    2.9528    0.0000 </r>
       <r>    4.8479    0.0000 </r>
       <r>    5.2777    0.0000 </r>
       <r>    6.1928    0.0000 </r>
       <r>    8.2000    0.0000 </r>
       <r>    8.3329    0.0000 </r>
       <r>    8.5965    0.0000 </r>
       <r>    8.9682    0.0000 </r>
       <r>    9.2769    0.0000 </r>
       <r>    9.3478    0.0000 </r>
       <r>    9.5429    0.0000 </r>
       <r>    9.8715    0.0000 </r>
       <r>   10.1136    0.0000 </r>
       <r>   10.8859    0.0000 </r>
       <r>   11.7233    0.0000 </r>
      </set>
      <set comment="kpoint 33">
       <r>  -29.0902    1.0000 </r>
       <r>  -29.0865    1.0000 </r>
       <r>  -20.0244    1.0000 </r>
       <r>  -17.8263    1.0000 </r>
       <r>  -16.8880    1.0000 </r>
       <r>  -15.5107    1.0000 </r>
       <r>  -12.5645    1.0000 </r>
       <r>  -11.9496    1.0000 </r>
       <r>  -11.3728    1.0000 </r>
       <r>  -10.5380    1.0000 </r>
       <r>  -10.2100    1.0000 </r>
       <r>   -9.3622    1.0000 </r>
       <r>   -8.0886    1.0000 </r>
       <r>   -7.2966    1.0000 </r>
       <r>   -6.7068    1.0000 </r>
       <r>    0.8487    0.0000 </r>
       <r>    1.5441    0.0000 </r>
       <r>    2.9327    0.0000 </r>
       <r>    4.9801    0.0000 </r>
       <r>    5.2955    0.0000 </r>
       <r>    6.0384    0.0000 </r>
       <r>    9.1010    0.0000 </r>
       <r>    9.3312    0.0000 </r>
       <r>    9.4151    0.0000 </r>
       <r>    9.6021    0.0000 </r>
       <r>    9.7787    0.0000 </r>
       <r>   10.0464    0.0000 </r>
       <r>   10.2075    0.0000 </r>
       <r>   10.5769    0.0000 </r>
       <r>   11.1474    0.0000 </r>
       <r>   11.6294    0.0000 </r>
       <r>   11.7663    0.0000 </r>
      </set>
      <set comment="kpoint 34">
       <r>  -29.0717    1.0000 </r>
       <r>  -29.0694    1.0000 </r>
       <r>  -19.6975    1.0000 </r>
       <r>  -18.0944    1.0000 </r>
       <r>  -16.6185    1.0000 </r>
       <r>  -15.9358    1.0000 </r>
       <r>  -12.4969    1.0000 </r>
       <r>  -11.9957    1.0000 </r>
       <r>  -11.4102    1.0000 </r>
       <r>  -10.5427    1.0000 </r>
       <r>  -10.2572    1.0000 </r>
       <r>   -9.4131    1.0000 </r>
       <r>   -8.1139    1.0000 </r>
       <r>   -7.3074    1.0000 </r>
       <r>   -6.7240    1.0000 </r>
       <r>    0.9336    0.0000 </r>
       <r>    1.4003    0.0000 </r>
       <r>    2.9344    0.0000 </r>
       <r>    5.0544    0.0000 </r>
       <r>    5.2825    0.0000 </r>
       <r>    5.9665    0.0000 </r>
       <r>    9.4145    0.0000 </r>
       <r>    9.4334    0.0000 </r>
       <r>   10.1507    0.0000 </r>
       <r>   10.3680    0.0000 </r>
       <r>   10.4280    0.0000 </r>
       <r>   10.6518    0.0000 </r>
       <r>   10.6721    0.0000 </r>
       <r>   10.9337    0.0000 </r>
       <r>   10.9468    0.0000 </r>
       <r>   11.2357    0.0000 </r>
       <r>   11.2890    0.0000 </r>
      </set>
      <set comment="kpoint 35">
       <r>  -29.7227    1.0000 </r>
       <r>  -29.6918    1.0000 </r>
       <r>  -23.3096    1.0000 </r>
       <r>  -20.0672    1.0000 </r>
       <r>  -14.2928    1.0000 </r>
       <r>  -12.0922    1.0000 </r>
       <r>  -11.2619    1.0000 </r>
       <r>  -10.5282    1.0000 </r>
       <r>  -10.0640    1.0000 </r>
       <r>   -9.5158    1.0000 </r>
       <r>   -8.7511    1.0000 </r>
       <r>   -7.4230    1.0000 </r>
       <r>   -7.1358    1.0000 </r>
       <r>   -6.4476    1.0000 </r>
       <r>   -6.0552    1.0000 </r>
       <r>    0.7438    0.0000 </r>
       <r>    1.6730    0.0000 </r>
       <r>    3.1848    0.0000 </r>
       <r>    4.0750    0.0000 </r>
       <r>    4.2520    0.0000 </r>
       <r>    4.3325    0.0000 </r>
       <r>    4.4729    0.0000 </r>
       <r>    4.5858    0.0000 </r>
       <r>    5.0160    0.0000 </r>
       <r>    5.3629    0.0000 </r>
       <r>    6.1073    0.0000 </r>
       <r>    6.1604    0.0000 </r>
       <r>    7.0721    0.0000 </r>
       <r>    7.6562    0.0000 </r>
       <r>    7.6749    0.0000 </r>
       <r>    7.8094    0.0000 </r>
       <r>    8.8905    0.0000 </r>
      </set>
      <set comment="kpoint 36">
       <r>  -29.6060    1.0000 </r>
       <r>  -29.5804    1.0000 </r>
       <r>  -22.9455    1.0000 </r>
       <r>  -19.7586    1.0000 </r>
       <r>  -14.1497    1.0000 </r>
       <r>  -12.2847    1.0000 </r>
       <r>  -11.9247    1.0000 </r>
       <r>  -10.9790    1.0000 </r>
       <r>  -10.4881    1.0000 </r>
       <r>   -9.9103    1.0000 </r>
       <r>   -8.9670    1.0000 </r>
       <r>   -7.8331    1.0000 </r>
       <r>   -7.2571    1.0000 </r>
       <r>   -6.7348    1.0000 </r>
       <r>   -6.3422    1.0000 </r>
       <r>    1.0602    0.0000 </r>
       <r>    1.7303    0.0000 </r>
       <r>    3.5149    0.0000 </r>
       <r>    4.3046    0.0000 </r>
       <r>    4.6630    0.0000 </r>
       <r>    4.9223    0.0000 </r>
       <r>    4.9795    0.0000 </r>
       <r>    5.1492    0.0000 </r>
       <r>    5.5328    0.0000 </r>
       <r>    5.8467    0.0000 </r>
       <r>    6.4205    0.0000 </r>
       <r>    6.6700    0.0000 </r>
       <r>    7.3695    0.0000 </r>
       <r>    7.5997    0.0000 </r>
       <r>    7.9506    0.0000 </r>
       <r>    8.2552    0.0000 </r>
       <r>    8.8867    0.0000 </r>
      </set>
      <set comment="kpoint 37">
       <r>  -29.4831    1.0000 </r>
       <r>  -29.4630    1.0000 </r>
       <r>  -22.5110    1.0000 </r>
       <r>  -19.3916    1.0000 </r>
       <r>  -14.1098    1.0000 </r>
       <r>  -12.8799    1.0000 </r>
       <r>  -12.3606    1.0000 </r>
       <r>  -11.2931    1.0000 </r>
       <r>  -10.8933    1.0000 </r>
       <r>  -10.2572    1.0000 </r>
       <r>   -9.2434    1.0000 </r>
       <r>   -8.2087    1.0000 </r>
       <r>   -7.4255    1.0000 </r>
       <r>   -6.9983    1.0000 </r>
       <r>   -6.5363    1.0000 </r>
       <r>    1.2119    0.0000 </r>
       <r>    1.8671    0.0000 </r>
       <r>    3.8536    0.0000 </r>
       <r>    4.3191    0.0000 </r>
       <r>    5.1577    0.0000 </r>
       <r>    5.5324    0.0000 </r>
       <r>    5.5684    0.0000 </r>
       <r>    5.8119    0.0000 </r>
       <r>    6.1387    0.0000 </r>
       <r>    6.4027    0.0000 </r>
       <r>    6.6733    0.0000 </r>
       <r>    7.1649    0.0000 </r>
       <r>    7.4176    0.0000 </r>
       <r>    8.0941    0.0000 </r>
       <r>    8.3509    0.0000 </r>
       <r>    8.6143    0.0000 </r>
       <r>    9.1443    0.0000 </r>
      </set>
      <set comment="kpoint 38">
       <r>  -29.3625    1.0000 </r>
       <r>  -29.3466    1.0000 </r>
       <r>  -22.0085    1.0000 </r>
       <r>  -18.9692    1.0000 </r>
       <r>  -14.4853    1.0000 </r>
       <r>  -13.3717    1.0000 </r>
       <r>  -12.7219    1.0000 </r>
       <r>  -11.5321    1.0000 </r>
       <r>  -11.2153    1.0000 </r>
       <r>  -10.5078    1.0000 </r>
       <r>   -9.5547    1.0000 </r>
       <r>   -8.5420    1.0000 </r>
       <r>   -7.6543    1.0000 </r>
       <r>   -7.1512    1.0000 </r>
       <r>   -6.6860    1.0000 </r>
       <r>    1.2247    0.0000 </r>
       <r>    2.0728    0.0000 </r>
       <r>    3.9494    0.0000 </r>
       <r>    4.4010    0.0000 </r>
       <r>    5.3411    0.0000 </r>
       <r>    6.1068    0.0000 </r>
       <r>    6.2269    0.0000 </r>
       <r>    6.4682    0.0000 </r>
       <r>    6.7853    0.0000 </r>
       <r>    7.0538    0.0000 </r>
       <r>    7.2558    0.0000 </r>
       <r>    7.5527    0.0000 </r>
       <r>    8.0563    0.0000 </r>
       <r>    8.5056    0.0000 </r>
       <r>    8.7376    0.0000 </r>
       <r>    8.9476    0.0000 </r>
       <r>    9.7670    0.0000 </r>
      </set>
      <set comment="kpoint 39">
       <r>  -29.2516    1.0000 </r>
       <r>  -29.2400    1.0000 </r>
       <r>  -21.4431    1.0000 </r>
       <r>  -18.4983    1.0000 </r>
       <r>  -15.2806    1.0000 </r>
       <r>  -13.8213    1.0000 </r>
       <r>  -12.8361    1.0000 </r>
       <r>  -11.7828    1.0000 </r>
       <r>  -11.4090    1.0000 </r>
       <r>  -10.6545    1.0000 </r>
       <r>   -9.8671    1.0000 </r>
       <r>   -8.8307    1.0000 </r>
       <r>   -7.8754    1.0000 </r>
       <r>   -7.2365    1.0000 </r>
       <r>   -6.8078    1.0000 </r>
       <r>    1.2179    0.0000 </r>
       <r>    2.2177    0.0000 </r>
       <r>    3.7753    0.0000 </r>
       <r>    4.5680    0.0000 </r>
       <r>    5.3040    0.0000 </r>
       <r>    6.4956    0.0000 </r>
       <r>    7.0150    0.0000 </r>
       <r>    7.2194    0.0000 </r>
       <r>    7.4139    0.0000 </r>
       <r>    7.7606    0.0000 </r>
       <r>    8.1434    0.0000 </r>
       <r>    8.2392    0.0000 </r>
       <r>    8.7747    0.0000 </r>
       <r>    8.8532    0.0000 </r>
       <r>    8.9950    0.0000 </r>
       <r>    9.6935    0.0000 </r>
       <r>   10.5534    0.0000 </r>
      </set>
      <set comment="kpoint 40">
       <r>  -29.1593    1.0000 </r>
       <r>  -29.1516    1.0000 </r>
       <r>  -20.8266    1.0000 </r>
       <r>  -18.0021    1.0000 </r>
       <r>  -16.1394    1.0000 </r>
       <r>  -14.4507    1.0000 </r>
       <r>  -12.7330    1.0000 </r>
       <r>  -11.9827    1.0000 </r>
       <r>  -11.5544    1.0000 </r>
       <r>  -10.7139    1.0000 </r>
       <r>  -10.1496    1.0000 </r>
       <r>   -9.0648    1.0000 </r>
       <r>   -8.0499    1.0000 </r>
       <r>   -7.2906    1.0000 </r>
       <r>   -6.9041    1.0000 </r>
       <r>    1.2498    0.0000 </r>
       <r>    2.2031    0.0000 </r>
       <r>    3.6130    0.0000 </r>
       <r>    4.6815    0.0000 </r>
       <r>    5.3120    0.0000 </r>
       <r>    6.4716    0.0000 </r>
       <r>    7.8887    0.0000 </r>
       <r>    8.0493    0.0000 </r>
       <r>    8.2814    0.0000 </r>
       <r>    8.6556    0.0000 </r>
       <r>    8.8852    0.0000 </r>
       <r>    9.0470    0.0000 </r>
       <r>    9.1430    0.0000 </r>
       <r>    9.3179    0.0000 </r>
       <r>    9.8138    0.0000 </r>
       <r>   10.5831    0.0000 </r>
       <r>   11.4413    0.0000 </r>
      </set>
      <set comment="kpoint 41">
       <r>  -29.0929    1.0000 </r>
       <r>  -29.0882    1.0000 </r>
       <r>  -20.1918    1.0000 </r>
       <r>  -17.6363    1.0000 </r>
       <r>  -16.7782    1.0000 </r>
       <r>  -15.1286    1.0000 </r>
       <r>  -12.6155    1.0000 </r>
       <r>  -12.0757    1.0000 </r>
       <r>  -11.6894    1.0000 </r>
       <r>  -10.7116    1.0000 </r>
       <r>  -10.3794    1.0000 </r>
       <r>   -9.2304    1.0000 </r>
       <r>   -8.1689    1.0000 </r>
       <r>   -7.3244    1.0000 </r>
       <r>   -6.9726    1.0000 </r>
       <r>    1.3408    0.0000 </r>
       <r>    2.0246    0.0000 </r>
       <r>    3.5694    0.0000 </r>
       <r>    4.7429    0.0000 </r>
       <r>    5.3830    0.0000 </r>
       <r>    6.2676    0.0000 </r>
       <r>    8.7174    0.0000 </r>
       <r>    9.0027    0.0000 </r>
       <r>    9.1301    0.0000 </r>
       <r>    9.3166    0.0000 </r>
       <r>    9.5180    0.0000 </r>
       <r>    9.6898    0.0000 </r>
       <r>    9.8015    0.0000 </r>
       <r>   10.2204    0.0000 </r>
       <r>   10.8204    0.0000 </r>
       <r>   11.5605    0.0000 </r>
       <r>   12.2829    0.0000 </r>
      </set>
      <set comment="kpoint 42">
       <r>  -29.0579    1.0000 </r>
       <r>  -29.0555    1.0000 </r>
       <r>  -19.6682    1.0000 </r>
       <r>  -17.8848    1.0000 </r>
       <r>  -16.6127    1.0000 </r>
       <r>  -15.7415    1.0000 </r>
       <r>  -12.5639    1.0000 </r>
       <r>  -12.0604    1.0000 </r>
       <r>  -11.7996    1.0000 </r>
       <r>  -10.6653    1.0000 </r>
       <r>  -10.5407    1.0000 </r>
       <r>   -9.3163    1.0000 </r>
       <r>   -8.2292    1.0000 </r>
       <r>   -7.3406    1.0000 </r>
       <r>   -7.0084    1.0000 </r>
       <r>    1.4805    0.0000 </r>
       <r>    1.8010    0.0000 </r>
       <r>    3.5816    0.0000 </r>
       <r>    4.7699    0.0000 </r>
       <r>    5.4737    0.0000 </r>
       <r>    6.0801    0.0000 </r>
       <r>    8.9761    0.0000 </r>
       <r>    9.4989    0.0000 </r>
       <r>    9.9948    0.0000 </r>
       <r>   10.1290    0.0000 </r>
       <r>   10.2491    0.0000 </r>
       <r>   10.5046    0.0000 </r>
       <r>   10.8066    0.0000 </r>
       <r>   11.1742    0.0000 </r>
       <r>   11.3203    0.0000 </r>
       <r>   11.4410    0.0000 </r>
       <r>   11.7560    0.0000 </r>
      </set>
      <set comment="kpoint 43">
       <r>  -29.4924    1.0000 </r>
       <r>  -29.4717    1.0000 </r>
       <r>  -22.5469    1.0000 </r>
       <r>  -19.4216    1.0000 </r>
       <r>  -14.0807    1.0000 </r>
       <r>  -12.5782    1.0000 </r>
       <r>  -12.4749    1.0000 </r>
       <r>  -11.2400    1.0000 </r>
       <r>  -10.9389    1.0000 </r>
       <r>  -10.3997    1.0000 </r>
       <r>   -9.1944    1.0000 </r>
       <r>   -8.1980    1.0000 </r>
       <r>   -7.3636    1.0000 </r>
       <r>   -6.9194    1.0000 </r>
       <r>   -6.7006    1.0000 </r>
       <r>    1.5226    0.0000 </r>
       <r>    1.7937    0.0000 </r>
       <r>    3.7785    0.0000 </r>
       <r>    4.8535    0.0000 </r>
       <r>    5.1070    0.0000 </r>
       <r>    5.3444    0.0000 </r>
       <r>    5.4929    0.0000 </r>
       <r>    5.6516    0.0000 </r>
       <r>    6.0944    0.0000 </r>
       <r>    6.2048    0.0000 </r>
       <r>    6.7354    0.0000 </r>
       <r>    7.0932    0.0000 </r>
       <r>    7.3183    0.0000 </r>
       <r>    7.9211    0.0000 </r>
       <r>    8.2636    0.0000 </r>
       <r>    8.5435    0.0000 </r>
       <r>    9.1036    0.0000 </r>
      </set>
      <set comment="kpoint 44">
       <r>  -29.3762    1.0000 </r>
       <r>  -29.3602    1.0000 </r>
       <r>  -22.0792    1.0000 </r>
       <r>  -19.0275    1.0000 </r>
       <r>  -14.2495    1.0000 </r>
       <r>  -13.1318    1.0000 </r>
       <r>  -12.7577    1.0000 </r>
       <r>  -11.4152    1.0000 </r>
       <r>  -11.3843    1.0000 </r>
       <r>  -10.7855    1.0000 </r>
       <r>   -9.4786    1.0000 </r>
       <r>   -8.5127    1.0000 </r>
       <r>   -7.5275    1.0000 </r>
       <r>   -7.1449    1.0000 </r>
       <r>   -6.9031    1.0000 </r>
       <r>    1.7121    0.0000 </r>
       <r>    2.0237    0.0000 </r>
       <r>    4.0657    0.0000 </r>
       <r>    4.8680    0.0000 </r>
       <r>    5.6432    0.0000 </r>
       <r>    6.0381    0.0000 </r>
       <r>    6.1253    0.0000 </r>
       <r>    6.3056    0.0000 </r>
       <r>    6.4970    0.0000 </r>
       <r>    6.7291    0.0000 </r>
       <r>    7.0402    0.0000 </r>
       <r>    7.3070    0.0000 </r>
       <r>    7.9046    0.0000 </r>
       <r>    8.1959    0.0000 </r>
       <r>    8.5753    0.0000 </r>
       <r>    8.8282    0.0000 </r>
       <r>    9.6719    0.0000 </r>
      </set>
      <set comment="kpoint 45">
       <r>  -29.2665    1.0000 </r>
       <r>  -29.2545    1.0000 </r>
[...]
        <r>  0.0015  0.0061  0.0012  0.0049  0.0000  0.0000  0.0000  0.0000  0.0000 </r>
        <r>  0.0001  0.0061  0.0010  0.0027  0.0000  0.0000  0.0000  0.0000  0.0000 </r>
        <r>  0.0001  0.0058  0.0009  0.0027  0.0000  0.0000  0.0000  0.0000  0.0000 </r>
       </set>
      </set>
      <set comment="kpoint 61">
       <set comment="band 1">
        <r>  0.0000  0.0000  0.0000  0.0000  0.0000  0.0000  0.0000  0.0000  0.0000 </r>
        <r>  0.0510  0.0000  0.0339  0.0000  0.0000  0.0000  0.0000  0.0000  0.0000 </r>
        <r>  0.0000  0.0007  0.0000  0.0007  0.0000  0.0000  0.0000  0.0000  0.0000 </r>
        <r>  0.0000  0.0000  0.0000  0.0000  0.0000  0.0000  0.0000  0.0000  0.0000 </r>
        <r>  0.0000  0.0000  0.0000  0.0000  0.0000  0.0000  0.0000  0.0000  0.0000 </r>
        <r>  0.7947  0.0000  0.0322  0.0000  0.0000  0.0000  0.0000  0.0000  0.0000 </r>
       </set>
       <set comment="band 2">
        <r>  0.0510  0.0000  0.0339  0.0000  0.0000  0.0000  0.0000  0.0000  0.0000 </r>
        <r>  0.0000  0.0000  0.0000  0.0000  0.0000  0.0000  0.0000  0.0000  0.0000 </r>
        <r>  0.0000  0.0000  0.0000  0.0000  0.0000  0.0000  0.0000  0.0000  0.0000 </r>
        <r>  0.0000  0.0007  0.0000  0.0007  0.0000  0.0000  0.0000  0.0000  0.0000 </r>
        <r>  0.7947  0.0000  0.0322  0.0000  0.0000  0.0000  0.0000  0.0000  0.0000 </r>
        <r>  0.0000  0.0000  0.0000  0.0000  0.0000  0.0000  0.0000  0.0000  0.0000 </r>
       </set>
       <set comment="band 3">
        <r>  0.0000  0.0298  0.0000  0.0298  0.0000  0.0000  0.0000  0.0000  0.0000 </r>
        <r>  0.0000  0.0298  0.0000  0.0298  0.0000  0.0000  0.0000  0.0000  0.0000 </r>
        <r>  0.2577  0.0000  0.0086  0.0000  0.0000  0.0000  0.0000  0.0000  0.0000 </r>
        <r>  0.2577  0.0000  0.0086  0.0000  0.0000  0.0000  0.0000  0.0000  0.0000 </r>
        <r>  0.0000  0.0021  0.0000  0.0021  0.0000  0.0000  0.0000  0.0000  0.0000 </r>
        <r>  0.0000  0.0021  0.0000  0.0021  0.0000  0.0000  0.0000  0.0000  0.0000 </r>
       </set>
       <set comment="band 4">
        <r>  0.0015  0.0093  0.0001  0.0093  0.0000  0.0000  0.0000  0.0000  0.0000 </r>
        <r>  0.3343  0.0000  0.0193  0.0000  0.0000  0.0000  0.0000  0.0000  0.0000 </r>
        <r>  0.0000  0.0769  0.0000  0.0786  0.0000  0.0000  0.0000  0.0000  0.0000 </r>
        <r>  0.0000  0.0142  0.0000  0.0159  0.0000  0.0000  0.0000  0.0000  0.0000 </r>
        <r>  0.0002  0.0009  0.0002  0.0009  0.0000  0.0000  0.0000  0.0000  0.0000 </r>
        <r>  0.0479  0.0000  0.0493  0.0000  0.0000  0.0000  0.0000  0.0000  0.0000 </r>
       </set>
       <set comment="band 5">
        <r>  0.3343  0.0000  0.0193  0.0000  0.0000  0.0000  0.0000  0.0000  0.0000 </r>
        <r>  0.0015  0.0093  0.0001  0.0093  0.0000  0.0000  0.0000  0.0000  0.0000 </r>
        <r>  0.0000  0.0159  0.0000  0.0142  0.0000  0.0000  0.0000  0.0000  0.0000 </r>
        <r>  0.0000  0.0786  0.0000  0.0769  0.0000  0.0000  0.0000  0.0000  0.0000 </r>
        <r>  0.0479  0.0000  0.0493  0.0000  0.0000  0.0000  0.0000  0.0000  0.0000 </r>
        <r>  0.0002  0.0009  0.0002  0.0009  0.0000  0.0000  0.0000  0.0000  0.0000 </r>
       </set>
       <set comment="band 6">
        <r>  0.0000  0.0554  0.0000  0.0554  0.0000  0.0000  0.0000  0.0000  0.0000 </r>
        <r>  0.0000  0.0554  0.0000  0.0554  0.0000  0.0000  0.0000  0.0000  0.0000 </r>
        <r>  0.1619  0.0000  0.0307  0.0000  0.0000  0.0000  0.0000  0.0000  0.0000 </r>
        <r>  0.1620  0.0000  0.0306  0.0000  0.0000  0.0000  0.0000  0.0000  0.0000 </r>
        <r>  0.0000  0.0120  0.0000  0.0120  0.0000  0.0000  0.0000  0.0000  0.0000 </r>
        <r>  0.0000  0.0120  0.0000  0.0120  0.0000  0.0000  0.0000  0.0000  0.0000 </r>
       </set>
       <set comment="band 7">
        <r>  0.0513  0.0001  0.0058  0.0001  0.0000  0.0000  0.0000  0.0000  0.0000 </r>
        <r>  0.0001  0.1076  0.0000  0.1076  0.0000  0.0000  0.0000  0.0000  0.0000 </r>
        <r>  0.0000  0.0898  0.0000  0.0888  0.0000  0.0000  0.0000  0.0000  0.0000 </r>
        <r>  0.0000  0.0024  0.0000  0.0014  0.0000  0.0000  0.0000  0.0000  0.0000 </r>
        <r>  0.0181  0.0000  0.0668  0.0000  0.0000  0.0000  0.0000  0.0000  0.0000 </r>
        <r>  0.0000  0.0336  0.0001  0.0336  0.0000  0.0000  0.0000  0.0000  0.0000 </r>
       </set>
       <set comment="band 8">
        <r>  0.0001  0.1076  0.0000  0.1076  0.0000  0.0000  0.0000  0.0000  0.0000 </r>
        <r>  0.0513  0.0001  0.0058  0.0001  0.0000  0.0000  0.0000  0.0000  0.0000 </r>
        <r>  0.0000  0.0014  0.0000  0.0024  0.0000  0.0000  0.0000  0.0000  0.0000 </r>
        <r>  0.0000  0.0888  0.0000  0.0898  0.0000  0.0000  0.0000  0.0000  0.0000 </r>
        <r>  0.0000  0.0336  0.0001  0.0336  0.0000  0.0000  0.0000  0.0000  0.0000 </r>
        <r>  0.0181  0.0000  0.0668  0.0000  0.0000  0.0000  0.0000  0.0000  0.0000 </r>
       </set>
       <set comment="band 9">
        <r>  0.0000  0.0192  0.0000  0.0192  0.0000  0.0000  0.0000  0.0000  0.0000 </r>
        <r>  0.0000  0.0192  0.0000  0.0192  0.0000  0.0000  0.0000  0.0000  0.0000 </r>
        <r>  0.0074  0.0000  0.1517  0.0000  0.0000  0.0000  0.0000  0.0000  0.0000 </r>
        <r>  0.0074  0.0000  0.1517  0.0000  0.0000  0.0000  0.0000  0.0000  0.0000 </r>
        <r>  0.0000  0.0635  0.0000  0.0636  0.0000  0.0000  0.0000  0.0000  0.0000 </r>
        <r>  0.0000  0.0635  0.0000  0.0636  0.0000  0.0000  0.0000  0.0000  0.0000 </r>
       </set>
       <set comment="band 10">
        <r>  0.0000  0.0112  0.0001  0.0112  0.0000  0.0000  0.0000  0.0000  0.0000 </r>
        <r>  0.0007  0.0000  0.1832  0.0000  0.0000  0.0000  0.0000  0.0000  0.0000 </r>
        <r>  0.0000  0.0257  0.0000  0.0261  0.0000  0.0000  0.0000  0.0000  0.0000 </r>
        <r>  0.0000  0.0025  0.0000  0.0029  0.0000  0.0000  0.0000  0.0000  0.0000 </r>
        <r>  0.0000  0.0198  0.0002  0.0198  0.0000  0.0000  0.0000  0.0000  0.0000 </r>
        <r>  0.0344  0.0000  0.4607  0.0000  0.0000  0.0000  0.0000  0.0000  0.0000 </r>
       </set>
       <set comment="band 11">
        <r>  0.0007  0.0000  0.1832  0.0000  0.0000  0.0000  0.0000  0.0000  0.0000 </r>
        <r>  0.0000  0.0112  0.0001  0.0112  0.0000  0.0000  0.0000  0.0000  0.0000 </r>
        <r>  0.0000  0.0029  0.0000  0.0025  0.0000  0.0000  0.0000  0.0000  0.0000 </r>
        <r>  0.0000  0.0261  0.0000  0.0257  0.0000  0.0000  0.0000  0.0000  0.0000 </r>
        <r>  0.0344  0.0000  0.4607  0.0000  0.0000  0.0000  0.0000  0.0000  0.0000 </r>
        <r>  0.0000  0.0198  0.0002  0.0198  0.0000  0.0000  0.0000  0.0000  0.0000 </r>
       </set>
       <set comment="band 12">
        <r>  0.0000  0.0019  0.0000  0.0019  0.0000  0.0000  0.0000  0.0000  0.0000 </r>
        <r>  0.0000  0.0019  0.0000  0.0019  0.0000  0.0000  0.0000  0.0000  0.0000 </r>
        <r>  0.0334  0.0000  0.0016  0.0000  0.0000  0.0000  0.0000  0.0000  0.0000 </r>
        <r>  0.0334  0.0000  0.0016  0.0000  0.0000  0.0000  0.0000  0.0000  0.0000 </r>
        <r>  0.0000  0.1735  0.0000  0.1738  0.0000  0.0000  0.0000  0.0000  0.0000 </r>
        <r>  0.0000  0.1735  0.0000  0.1738  0.0000  0.0000  0.0000  0.0000  0.0000 </r>
       </set>
       <set comment="band 13">
        <r>  0.0066  0.0000  0.0072  0.0000  0.0000  0.0000  0.0000  0.0000  0.0000 </r>
        <r>  0.0000  0.0097  0.0000  0.0097  0.0000  0.0000  0.0000  0.0000  0.0000 </r>
        <r>  0.0000  0.0343  0.0000  0.0346  0.0000  0.0000  0.0000  0.0000  0.0000 </r>
        <r>  0.0000  0.0018  0.0000  0.0021  0.0000  0.0000  0.0000  0.0000  0.0000 </r>
        <r>  0.0001  0.0000  0.0147  0.0000  0.0000  0.0000  0.0000  0.0000  0.0000 </r>
        <r>  0.0000  0.3101  0.0000  0.3099  0.0000  0.0000  0.0000  0.0000  0.0000 </r>
       </set>
       <set comment="band 14">
        <r>  0.0000  0.0097  0.0000  0.0097  0.0000  0.0000  0.0000  0.0000  0.0000 </r>
        <r>  0.0066  0.0000  0.0072  0.0000  0.0000  0.0000  0.0000  0.0000  0.0000 </r>
        <r>  0.0000  0.0021  0.0000  0.0018  0.0000  0.0000  0.0000  0.0000  0.0000 </r>
        <r>  0.0000  0.0346  0.0000  0.0343  0.0000  0.0000  0.0000  0.0000  0.0000 </r>
        <r>  0.0000  0.3101  0.0000  0.3099  0.0000  0.0000  0.0000  0.0000  0.0000 </r>
        <r>  0.0001  0.0000  0.0147  0.0000  0.0000  0.0000  0.0000  0.0000  0.0000 </r>
       </set>
       <set comment="band 15">
        <r>  0.0000  0.0123  0.0000  0.0123  0.0000  0.0000  0.0000  0.0000  0.0000 </r>
        <r>  0.0000  0.0123  0.0000  0.0123  0.0000  0.0000  0.0000  0.0000  0.0000 </r>
        <r>  0.0025  0.0000  0.1140  0.0000  0.0000  0.0000  0.0000  0.0000  0.0000 </r>
        <r>  0.0025  0.0000  0.1140  0.0000  0.0000  0.0000  0.0000  0.0000  0.0000 </r>
        <r>  0.0000  0.1244  0.0000  0.1244  0.0000  0.0000  0.0000  0.0000  0.0000 </r>
        <r>  0.0000  0.1244  0.0000  0.1244  0.0000  0.0000  0.0000  0.0000  0.0000 </r>
       </set>
       <set comment="band 16">
        <r>  0.0008  0.0402  0.0006  0.0402  0.0000  0.0000  0.0000  0.0000  0.0000 </r>
        <r>  0.1191  0.0003  0.0896  0.0003  0.0000  0.0000  0.0000  0.0000  0.0000 </r>
        <r>  0.0000  0.0020  0.0000  0.0017  0.0000  0.0000  0.0000  0.0000  0.0000 </r>
        <r>  0.0000  0.0083  0.0000  0.0080  0.0000  0.0000  0.0000  0.0000  0.0000 </r>
        <r>  0.0001  0.0111  0.0011  0.0111  0.0000  0.0000  0.0000  0.0000  0.0000 </r>
        <r>  0.0228  0.0001  0.1670  0.0001  0.0000  0.0000  0.0000  0.0000  0.0000 </r>
       </set>
       <set comment="band 17">
        <r>  0.1191  0.0003  0.0896  0.0003  0.0000  0.0000  0.0000  0.0000  0.0000 </r>
        <r>  0.0008  0.0402  0.0006  0.0402  0.0000  0.0000  0.0000  0.0000  0.0000 </r>
        <r>  0.0000  0.0080  0.0000  0.0083  0.0000  0.0000  0.0000  0.0000  0.0000 </r>
        <r>  0.0000  0.0017  0.0000  0.0020  0.0000  0.0000  0.0000  0.0000  0.0000 </r>
        <r>  0.0228  0.0001  0.1670  0.0001  0.0000  0.0000  0.0000  0.0000  0.0000 </r>
        <r>  0.0001  0.0111  0.0011  0.0111  0.0000  0.0000  0.0000  0.0000  0.0000 </r>
       </set>
       <set comment="band 18">
        <r>  0.0000  0.0006  0.0000  0.0006  0.0000  0.0000  0.0000  0.0000  0.0000 </r>
        <r>  0.0000  0.0006  0.0000  0.0006  0.0000  0.0000  0.0000  0.0000  0.0000 </r>
        <r>  0.0872  0.0000  0.1926  0.0000  0.0000  0.0000  0.0000  0.0000  0.0000 </r>
        <r>  0.0872  0.0000  0.1926  0.0000  0.0000  0.0000  0.0000  0.0000  0.0000 </r>
        <r>  0.0000  0.0100  0.0000  0.0100  0.0000  0.0000  0.0000  0.0000  0.0000 </r>
        <r>  0.0000  0.0100  0.0000  0.0100  0.0000  0.0000  0.0000  0.0000  0.0000 </r>
       </set>
       <set comment="band 19">
        <r>  0.0001  0.0124  0.1818  0.0124  0.0000  0.0000  0.0000  0.0000  0.0000 </r>
        <r>  0.0000  0.0311  0.0726  0.0311  0.0000  0.0000  0.0000  0.0000  0.0000 </r>
        <r>  0.0000  0.0378  0.0000  0.0668  0.0000  0.0000  0.0000  0.0000  0.0000 </r>
        <r>  0.0000  0.0131  0.0000  0.0421  0.0000  0.0000  0.0000  0.0000  0.0000 </r>
        <r>  0.0114  0.0048  0.0459  0.0048  0.0000  0.0000  0.0000  0.0000  0.0000 </r>
        <r>  0.0046  0.0121  0.0183  0.0121  0.0000  0.0000  0.0000  0.0000  0.0000 </r>
       </set>
       <set comment="band 20">
        <r>  0.0000  0.0311  0.0726  0.0311  0.0000  0.0000  0.0000  0.0000  0.0000 </r>
        <r>  0.0001  0.0124  0.1818  0.0124  0.0000  0.0000  0.0000  0.0000  0.0000 </r>
        <r>  0.0000  0.0421  0.0000  0.0131  0.0000  0.0000  0.0000  0.0000  0.0000 </r>
        <r>  0.0000  0.0668  0.0000  0.0378  0.0000  0.0000  0.0000  0.0000  0.0000 </r>
        <r>  0.0046  0.0121  0.0183  0.0121  0.0000  0.0000  0.0000  0.0000  0.0000 </r>
        <r>  0.0114  0.0048  0.0459  0.0048  0.0000  0.0000  0.0000  0.0000  0.0000 </r>
       </set>
       <set comment="band 21">
        <r>  0.0000  0.1182  0.0000  0.1182  0.0000  0.0000  0.0000  0.0000  0.0000 </r>
        <r>  0.0000  0.1183  0.0000  0.1183  0.0000  0.0000  0.0000  0.0000  0.0000 </r>
        <r>  0.0706  0.0000  0.0462  0.0000  0.0000  0.0000  0.0000  0.0000  0.0000 </r>
        <r>  0.0705  0.0000  0.0462  0.0000  0.0000  0.0000  0.0000  0.0000  0.0000 </r>
        <r>  0.0000  0.0000  0.0000  0.0000  0.0000  0.0000  0.0000  0.0000  0.0000 </r>
        <r>  0.0000  0.0000  0.0000  0.0000  0.0000  0.0000  0.0000  0.0000  0.0000 </r>
       </set>
       <set comment="band 22">
        <r>  0.0000  0.1244  0.0000  0.1244  0.0000  0.0000  0.0000  0.0000  0.0000 </r>
        <r>  0.0000  0.1243  0.0000  0.1243  0.0000  0.0000  0.0000  0.0000  0.0000 </r>
        <r>  0.0890  0.0000  0.0332  0.0000  0.0000  0.0000  0.0000  0.0000  0.0000 </r>
        <r>  0.0890  0.0000  0.0332  0.0000  0.0000  0.0000  0.0000  0.0000  0.0000 </r>
        <r>  0.0000  0.0002  0.0000  0.0002  0.0000  0.0000  0.0000  0.0000  0.0000 </r>
        <r>  0.0000  0.0002  0.0000  0.0002  0.0000  0.0000  0.0000  0.0000  0.0000 </r>
       </set>
       <set comment="band 23">
        <r>  0.0243  0.0124  0.0020  0.0124  0.0000  0.0000  0.0000  0.0000  0.0000 </r>
        <r>  0.1255  0.0024  0.0105  0.0024  0.0000  0.0000  0.0000  0.0000  0.0000 </r>
        <r>  0.0000  0.1921  0.0000  0.2071  0.0000  0.0000  0.0000  0.0000  0.0000 </r>
        <r>  0.0000  0.0348  0.0000  0.0498  0.0000  0.0000  0.0000  0.0000  0.0000 </r>
        <r>  0.0006  0.0019  0.0018  0.0019  0.0000  0.0000  0.0000  0.0000  0.0000 </r>
        <r>  0.0029  0.0004  0.0092  0.0004  0.0000  0.0000  0.0000  0.0000  0.0000 </r>
       </set>
       <set comment="band 24">
        <r>  0.1255  0.0024  0.0105  0.0024  0.0000  0.0000  0.0000  0.0000  0.0000 </r>
        <r>  0.0243  0.0124  0.0020  0.0124  0.0000  0.0000  0.0000  0.0000  0.0000 </r>
        <r>  0.0000  0.0498  0.0000  0.0348  0.0000  0.0000  0.0000  0.0000  0.0000 </r>
        <r>  0.0000  0.2071  0.0000  0.1921  0.0000  0.0000  0.0000  0.0000  0.0000 </r>
        <r>  0.0029  0.0004  0.0092  0.0004  0.0000  0.0000  0.0000  0.0000  0.0000 </r>
        <r>  0.0006  0.0019  0.0018  0.0019  0.0000  0.0000  0.0000  0.0000  0.0000 </r>
       </set>
       <set comment="band 25">
        <r>  0.0046  0.0024  0.0262  0.0024  0.0000  0.0000  0.0000  0.0000  0.0000 </r>
        <r>  0.0003  0.0328  0.0019  0.0328  0.0000  0.0000  0.0000  0.0000  0.0000 </r>
        <r>  0.0000  0.0235  0.0000  0.0181  0.0000  0.0000  0.0000  0.0000  0.0000 </r>
        <r>  0.0000  0.0076  0.0000  0.0022  0.0000  0.0000  0.0000  0.0000  0.0000 </r>
        <r>  0.0010  0.0022  0.0013  0.0022  0.0000  0.0000  0.0000  0.0000  0.0000 </r>
        <r>  0.0001  0.0304  0.0001  0.0304  0.0000  0.0000  0.0000  0.0000  0.0000 </r>
       </set>
       <set comment="band 26">
        <r>  0.0003  0.0328  0.0019  0.0328  0.0000  0.0000  0.0000  0.0000  0.0000 </r>
        <r>  0.0046  0.0024  0.0262  0.0024  0.0000  0.0000  0.0000  0.0000  0.0000 </r>
        <r>  0.0000  0.0022  0.0000  0.0076  0.0000  0.0000  0.0000  0.0000  0.0000 </r>
        <r>  0.0000  0.0181  0.0000  0.0235  0.0000  0.0000  0.0000  0.0000  0.0000 </r>
        <r>  0.0001  0.0304  0.0001  0.0304  0.0000  0.0000  0.0000  0.0000  0.0000 </r>
        <r>  0.0010  0.0022  0.0013  0.0022  0.0000  0.0000  0.0000  0.0000  0.0000 </r>
       </set>
       <set comment="band 27">
        <r>  0.0000  0.0026  0.0000  0.0027  0.0000  0.0000  0.0000  0.0000  0.0000 </r>
        <r>  0.0000  0.0027  0.0000  0.0027  0.0000  0.0000  0.0000  0.0000  0.0000 </r>
        <r>  0.0026  0.0000  0.0019  0.0000  0.0000  0.0000  0.0000  0.0000  0.0000 </r>
        <r>  0.0026  0.0000  0.0019  0.0000  0.0000  0.0000  0.0000  0.0000  0.0000 </r>
        <r>  0.0000  0.0118  0.0000  0.0118  0.0000  0.0000  0.0000  0.0000  0.0000 </r>
        <r>  0.0000  0.0120  0.0000  0.0120  0.0000  0.0000  0.0000  0.0000  0.0000 </r>
       </set>
       <set comment="band 28">
        <r>  0.0000  0.0030  0.0000  0.0030  0.0000  0.0000  0.0000  0.0000  0.0000 </r>
        <r>  0.0000  0.0029  0.0000  0.0029  0.0000  0.0000  0.0000  0.0000  0.0000 </r>
        <r>  0.0020  0.0000  0.0026  0.0000  0.0000  0.0000  0.0000  0.0000  0.0000 </r>
        <r>  0.0020  0.0000  0.0026  0.0000  0.0000  0.0000  0.0000  0.0000  0.0000 </r>
        <r>  0.0000  0.0115  0.0000  0.0115  0.0000  0.0000  0.0000  0.0000  0.0000 </r>
        <r>  0.0000  0.0113  0.0000  0.0113  0.0000  0.0000  0.0000  0.0000  0.0000 </r>
       </set>
       <set comment="band 29">
        <r>  0.0014  0.0059  0.0107  0.0058  0.0000  0.0000  0.0000  0.0000  0.0000 </r>
        <r>  0.0010  0.0078  0.0080  0.0078  0.0000  0.0000  0.0000  0.0000  0.0000 </r>
        <r>  0.0000  0.0096  0.0000  0.0106  0.0000  0.0000  0.0000  0.0000  0.0000 </r>
        <r>  0.0000  0.0073  0.0000  0.0083  0.0000  0.0000  0.0000  0.0000  0.0000 </r>
        <r>  0.0007  0.0012  0.0002  0.0011  0.0000  0.0000  0.0000  0.0000  0.0000 </r>
        <r>  0.0006  0.0016  0.0002  0.0015  0.0000  0.0000  0.0000  0.0000  0.0000 </r>
       </set>
       <set comment="band 30">
        <r>  0.0010  0.0079  0.0081  0.0078  0.0000  0.0000  0.0000  0.0000  0.0000 </r>
        <r>  0.0014  0.0059  0.0108  0.0059  0.0000  0.0000  0.0000  0.0000  0.0000 </r>
        <r>  0.0000  0.0083  0.0000  0.0073  0.0000  0.0000  0.0000  0.0000  0.0000 </r>
        <r>  0.0000  0.0106  0.0000  0.0096  0.0000  0.0000  0.0000  0.0000  0.0000 </r>
        <r>  0.0006  0.0016  0.0002  0.0015  0.0000  0.0000  0.0000  0.0000  0.0000 </r>
        <r>  0.0007  0.0012  0.0002  0.0011  0.0000  0.0000  0.0000  0.0000  0.0000 </r>
       </set>
       <set comment="band 31">
        <r>  0.0001  0.0006  0.0006  0.0006  0.0000  0.0000  0.0000  0.0000  0.0000 </r>
        <r>  0.0001  0.0006  0.0007  0.0006  0.0000  0.0000  0.0000  0.0000  0.0000 </r>
        <r>  0.0000  0.0000  0.0000  0.0000  0.0000  0.0000  0.0000  0.0000  0.0000 </r>
        <r>  0.0000  0.0000  0.0000  0.0000  0.0000  0.0000  0.0000  0.0000  0.0000 </r>
        <r>  0.0004  0.0000  0.0045  0.0000  0.0000  0.0000  0.0000  0.0000  0.0000 </r>
        <r>  0.0004  0.0000  0.0047  0.0000  0.0000  0.0000  0.0000  0.0000  0.0000 </r>
       </set>
       <set comment="band 32">
        <r>  0.0001  0.0007  0.0007  0.0007  0.0000  0.0000  0.0000  0.0000  0.0000 </r>
        <r>  0.0001  0.0007  0.0007  0.0007  0.0000  0.0000  0.0000  0.0000  0.0000 </r>
        <r>  0.0000  0.0000  0.0000  0.0000  0.0000  0.0000  0.0000  0.0000  0.0000 </r>
        <r>  0.0000  0.0000  0.0000  0.0000  0.0000  0.0000  0.0000  0.0000  0.0000 </r>
        <r>  0.0004  0.0000  0.0048  0.0000  0.0000  0.0000  0.0000  0.0000  0.0000 </r>
        <r>  0.0004  0.0000  0.0046  0.0000  0.0000  0.0000  0.0000  0.0000  0.0000 </r>
       </set>
      </set>
     </set>
    </set>
   </array>
  </projected>
 </calculation>
 <structure name="finalpos" >
  <crystal>
   <varray name="basis" >
    <v>       2.55590768       0.00000000       0.00000000 </v>
    <v>      -1.27795384       2.21348098       0.00000000 </v>
    <v>       0.00000000       0.00000000      30.00000000 </v>
   </varray>
   <i name="volume">    169.72359134 </i>
   <varray name="rec_basis" >
    <v>       0.39125044       0.22588855       0.00000000 </v>
    <v>       0.00000000       0.45177709       0.00000000 </v>
    <v>       0.00000000       0.00000000       0.03333333 </v>
   </varray>
  </crystal>
  <varray name="positions" >
   <v>       0.33333332       0.66666664       0.45731859 </v>
   <v>       0.66666660       0.33333329       0.54268145 </v>
   <v>       0.00000000       0.00000000       0.52589813 </v>
   <v>       0.00000000       0.00000000       0.47410187 </v>
   <v>       0.33333332       0.66666664       0.41137542 </v>
   <v>       0.66666660       0.33333329       0.58862458 </v>
  </varray>
 </structure>
</modeling>
